 DBCSR| CPU Multiplication driver                                           XSMM (U)
 DBCSR| Multrec recursion limit                                              512 (U)
 DBCSR| Multiplication stack size                                           1000 (D)
 DBCSR| Maximum elements for images                                    UNLIMITED (U)
 DBCSR| Multiplicative factor virtual images                                   1 (U)
 DBCSR| Use multiplication densification                                       T (D)
 DBCSR| Multiplication size stacks                                             3 (U)
 DBCSR| Use memory pool for CPU allocation                                     F (U)
 DBCSR| Number of 3D layers                                               SINGLE (U)
 DBCSR| Use MPI memory allocation                                              F (U)
 DBCSR| Use RMA algorithm                                                      F (U)
 DBCSR| Use Communication thread                                               T (U)
 DBCSR| Communication thread load                                             87 (D)
 DBCSR| MPI: My process id                                                     0
 DBCSR| MPI: Number of processes                                              36
 DBCSR| OMP: Current number of threads                                         1
 DBCSR| OMP: Max number of threads                                             1
 DBCSR| Split modifier for TAS multiplication algorithm                  1.0E+00 (U)


  **** **** ******  **  PROGRAM STARTED AT               2023-07-13 11:03:27.374
 ***** ** ***  *** **   PROGRAM STARTED ON                              cccxc520
 **    ****   ******    PROGRAM STARTED BY                              felipelo
 ***** **    ** ** **   PROGRAM PROCESS ID                               2874130
  **** **  *******  **  PROGRAM STARTED IN /dccstor/nanopore-2945/felipe/Converg
                                           encyCP2K/1250

 CP2K| version string:                                       CP2K version 2023.1
 CP2K| source code revision number:                                  git:b888bd8
 CP2K| cp2kflags: omp libint fftw3 libxc pexsi elpa parallel scalapack cosma qui
 CP2K|            p xsmm plumed2 spglib sirius libvori libbqb libtorch libvdwxc
 CP2K| is freely available from                            https://www.cp2k.org/
 CP2K| Program compiled at                          Tue Jan 31 12:09:33 EST 2023
 CP2K| Program compiled on                                              cccxl016
 CP2K| Program compiled for                                                local
 CP2K| Data directory path         /dccstor/nanopore-2945/cp2k/cp2k-v2023.1/data
 CP2K| Input file name                                        simulation_SCF.inp

 GLOBAL| Force Environment number                                              1
 GLOBAL| Basis set file name                                        BASIS_MOLOPT
 GLOBAL| Potential file name                                      GTH_POTENTIALS
 GLOBAL| MM Potential file name                                     MM_POTENTIAL
 GLOBAL| Coordinate file name                                      __STD_INPUT__
 GLOBAL| Method name                                                        CP2K
 GLOBAL| Project name                                                   MgMOF-74
 GLOBAL| Run type                                                         ENERGY
 GLOBAL| FFT library                                                       FFTW3
 GLOBAL| Diagonalization library                                       ScaLAPACK
 GLOBAL| DGEMM library                                                      BLAS
 GLOBAL| Orthonormality check for eigenvectors                          DISABLED
 GLOBAL| Matrix multiplication library                                     COSMA
 GLOBAL| All-to-all communication in single precision                          F
 GLOBAL| FFTs using library dependent lengths                                  F
 GLOBAL| Grid backend                                                       AUTO
 GLOBAL| Global print level                                               MEDIUM
 GLOBAL| MPI I/O enabled                                                       T
 GLOBAL| Total number of message passing processes                            36
 GLOBAL| Number of threads for this process                                    1
 GLOBAL| This output is from process                                           0
 GLOBAL| Stack size for threads created by OpenMP (OMP_STACKSIZE)        default
 GLOBAL| CPU model name                          AMD EPYC 7742 64-Core Processor
 GLOBAL| CPUID                                                              1002
 GLOBAL| Compiled for CPUID                                                 1001

 *** HINT in environment.F:884 :: The compiler target flags (x86_avx) used ***
 *** to build this binary cannot exploit all extensions of this CPU model  ***
 *** (x86_avx2). Consider compiler target flags as part of FCFLAGS and     ***
 *** CFLAGS (ARCH file).                                                   ***


 MEMORY| system memory details [Kb]
 MEMORY|                        rank 0           min           max       average
 MEMORY| MemTotal           1056405064    1056405064    1056405064    1056405064
 MEMORY| MemFree             955944692     955875652     955944692     955941372
 MEMORY| Buffers                  3348          3348          3348          3348
 MEMORY| Cached                6373672       6373672       6373672       6373672
 MEMORY| Slab                  2472692       2472692       2472692       2472692
 MEMORY| SReclaimable           450312        450312        450312        450312
 MEMORY| MemLikelyFree       962772024     962702984     962772024     962768704


 *** Fundamental physical constants (SI units) ***

 *** Literature: B. J. Mohr and B. N. Taylor,
 ***             CODATA recommended values of the fundamental physical
 ***             constants: 2006, Web Version 5.1
 ***             http://physics.nist.gov/constants

 Speed of light in vacuum [m/s]                             2.99792458000000E+08
 Magnetic constant or permeability of vacuum [N/A**2]       1.25663706143592E-06
 Electric constant or permittivity of vacuum [F/m]          8.85418781762039E-12
 Planck constant (h) [J*s]                                  6.62606896000000E-34
 Planck constant (h-bar) [J*s]                              1.05457162825177E-34
 Elementary charge [C]                                      1.60217648700000E-19
 Electron mass [kg]                                         9.10938215000000E-31
 Electron g factor [ ]                                     -2.00231930436220E+00
 Proton mass [kg]                                           1.67262163700000E-27
 Fine-structure constant                                    7.29735253760000E-03
 Rydberg constant [1/m]                                     1.09737315685270E+07
 Avogadro constant [1/mol]                                  6.02214179000000E+23
 Boltzmann constant [J/K]                                   1.38065040000000E-23
 Atomic mass unit [kg]                                      1.66053878200000E-27
 Bohr radius [m]                                            5.29177208590000E-11

 *** Conversion factors ***

 [u] -> [a.u.]                                              1.82288848426455E+03
 [Angstrom] -> [Bohr] = [a.u.]                              1.88972613288564E+00
 [a.u.] = [Bohr] -> [Angstrom]                              5.29177208590000E-01
 [a.u.] -> [s]                                              2.41888432650478E-17
 [a.u.] -> [fs]                                             2.41888432650478E-02
 [a.u.] -> [J]                                              4.35974393937059E-18
 [a.u.] -> [N]                                              8.23872205491840E-08
 [a.u.] -> [K]                                              3.15774647902944E+05
 [a.u.] -> [kJ/mol]                                         2.62549961709828E+03
 [a.u.] -> [kcal/mol]                                       6.27509468713739E+02
 [a.u.] -> [Pa]                                             2.94210107994716E+13
 [a.u.] -> [bar]                                            2.94210107994716E+08
 [a.u.] -> [atm]                                            2.90362800883016E+08
 [a.u.] -> [eV]                                             2.72113838565563E+01
 [a.u.] -> [Hz]                                             6.57968392072181E+15
 [a.u.] -> [1/cm] (wave numbers)                            2.19474631370540E+05
 [a.u./Bohr**2] -> [1/cm]                                   5.14048714338585E+03
 

 CELL_TOP| Volume [angstrom^3]:                                      4106.673357
 CELL_TOP| Vector a [angstrom    26.136     0.000     0.000   |a| =    26.135900
 CELL_TOP| Vector b [angstrom   -13.068    22.634     0.000   |b| =    26.135900
 CELL_TOP| Vector c [angstrom     0.000     0.000     6.942   |c| =     6.942000
 CELL_TOP| Angle (b,c), alpha [degree]:                                90.000000
 CELL_TOP| Angle (a,c), beta  [degree]:                                90.000000
 CELL_TOP| Angle (a,b), gamma [degree]:                               120.000000
 CELL_TOP| Numerically orthorhombic:                                          NO
 CELL_TOP| Periodicity                                                       XYZ

 GENERATE|  Preliminary Number of Bonds generated:                             0
 GENERATE|  Achieved consistency in connectivity generation.

 CELL| Volume [angstrom^3]:                                          4106.673357
 CELL| Vector a [angstrom]:      26.136     0.000     0.000   |a| =    26.135900
 CELL| Vector b [angstrom]:     -13.068    22.634     0.000   |b| =    26.135900
 CELL| Vector c [angstrom]:       0.000     0.000     6.942   |c| =     6.942000
 CELL| Angle (b,c), alpha [degree]:                                    90.000000
 CELL| Angle (a,c), beta  [degree]:                                    90.000000
 CELL| Angle (a,b), gamma [degree]:                                   120.000000
 CELL| Numerically orthorhombic:                                              NO
 CELL| Periodicity                                                           XYZ

 CELL_REF| Volume [angstrom^3]:                                      4106.673357
 CELL_REF| Vector a [angstrom    26.136     0.000     0.000   |a| =    26.135900
 CELL_REF| Vector b [angstrom   -13.068    22.634     0.000   |b| =    26.135900
 CELL_REF| Vector c [angstrom     0.000     0.000     6.942   |c| =     6.942000
 CELL_REF| Angle (b,c), alpha [degree]:                                90.000000
 CELL_REF| Angle (a,c), beta  [degree]:                                90.000000
 CELL_REF| Angle (a,b), gamma [degree]:                               120.000000
 CELL_REF| Numerically orthorhombic:                                          NO
 CELL_REF| Periodicity                                                       XYZ

 *******************************************************************************
 *******************************************************************************
 **                                                                           **
 **     #####                         ##              ##                      **
 **    ##   ##            ##          ##              ##                      **
 **   ##     ##                       ##            ######                    **
 **   ##     ##  ##   ##  ##   #####  ##  ##   ####   ##    #####    #####    **
 **   ##     ##  ##   ##  ##  ##      ## ##   ##      ##   ##   ##  ##   ##   **
 **   ##  ## ##  ##   ##  ##  ##      ####     ###    ##   ######   ######    **
 **    ##  ###   ##   ##  ##  ##      ## ##      ##   ##   ##       ##        **
 **     #######   #####   ##   #####  ##  ##  ####    ##    #####   ##        **
 **           ##                                                    ##        **
 **                                                                           **
 **                                                ... make the atoms dance   **
 **                                                                           **
 **            Copyright (C) by CP2K developers group (2000-2022)             **
 **                      J. Chem. Phys. 152, 194103 (2020)                    **
 **                                                                           **
 *******************************************************************************

 DFT| Spin restricted Kohn-Sham (RKS) calculation                            RKS
 DFT| Multiplicity                                                             1
 DFT| Number of spin states                                                    1
 DFT| Charge                                                                   0
 DFT| Self-interaction correction (SIC)                                       NO
 DFT| Cutoffs: density                                              1.000000E-10
 DFT|          gradient                                             1.000000E-10
 DFT|          tau                                                  1.000000E-10
 DFT|          cutoff_smoothing_range                               0.000000E+00
 DFT| XC density smoothing                                                  NONE
 DFT| XC derivatives                                                          PW

 FUNCTIONAL| PBE:
 FUNCTIONAL| J.P.Perdew, K.Burke, M.Ernzerhof, Phys. Rev. Letter, vol. 77, n 18,
 FUNCTIONAL|  pp. 3865-3868, (1996){spin unpolarized}                           


 QS| Method:                                                                 GPW
 QS| Density plane wave grid type                        NON-SPHERICAL FULLSPACE
 QS| Number of grid levels:                                                    5
 QS| Density cutoff [a.u.]:                                                625.0
 QS| Multi grid cutoff [a.u.]: 1) grid level                               625.0
 QS|                           2) grid level                               208.3
 QS|                           3) grid level                                69.4
 QS|                           4) grid level                                23.1
 QS|                           5) grid level                                 7.7
 QS| Grid level progression factor:                                          3.0
 QS| Relative density cutoff [a.u.]:                                        30.0
 QS| Interaction thresholds: eps_pgf_orb:                                3.2E-04
 QS|                         eps_filter_matrix:                          0.0E+00
 QS|                         eps_core_charge:                            1.0E-09
 QS|                         eps_rho_gspace:                             1.0E-07
 QS|                         eps_rho_rspace:                             1.0E-07
 QS|                         eps_gvg_rspace:                             3.2E-04
 QS|                         eps_ppl:                                    1.0E-02
 QS|                         eps_ppnl:                                   3.2E-06


 ATOMIC KIND INFORMATION

  1. Atomic kind: Mg                                    Number of atoms:      18

     Orbital Basis Set                                    DZVP-MOLOPT-SR-GTH-q10

       Number of orbital shell sets:                                           1
       Number of orbital shells:                                               5
       Number of primitive Cartesian functions:                                7
       Number of Cartesian basis functions:                                    9
       Number of spherical basis functions:                                    9
       Norm type:                                                              2

       Normalised Cartesian orbitals:

                        Set   Shell   Orbital            Exponent    Coefficient

                          1       1    2s               30.653048       0.484709
                                                        12.924389       0.839969
                                                         4.968377      -0.417560
                                                         1.851828      -0.696909
                                                         0.673565      -0.194648
                                                         0.168626      -0.002319
                                                         0.059428      -0.000952

                          1       2    3s               30.653048      -0.080058
                                                        12.924389      -0.163891
                                                         4.968377       0.094488
                                                         1.851828       0.194057
                                                         0.673565       0.125641
                                                         0.168626      -0.090163
                                                         0.059428      -0.059314

                          1       3    4s               30.653048      -0.159449
                                                        12.924389       0.095780
                                                         4.968377      -0.082563
                                                         1.851828      -0.227029
                                                         0.673565      -0.181982
                                                         0.168626       0.392873
                                                         0.059428      -0.158429

                          1       4    3px              30.653048       4.106765
                                                        12.924389       5.139385
                                                         4.968377       3.494459
                                                         1.851828       1.337175
                                                         0.673565       0.228011
                                                         0.168626       0.004292
                                                         0.059428      -0.000255
                          1       4    3py              30.653048       4.106765
                                                        12.924389       5.139385
                                                         4.968377       3.494459
                                                         1.851828       1.337175
                                                         0.673565       0.228011
                                                         0.168626       0.004292
                                                         0.059428      -0.000255
                          1       4    3pz              30.653048       4.106765
                                                        12.924389       5.139385
                                                         4.968377       3.494459
                                                         1.851828       1.337175
                                                         0.673565       0.228011
                                                         0.168626       0.004292
                                                         0.059428      -0.000255

                          1       5    4px              30.653048       0.529694
                                                        12.924389       0.985876
                                                         4.968377       0.526402
                                                         1.851828       0.343987
                                                         0.673565      -0.055607
                                                         0.168626      -0.084885
                                                         0.059428      -0.021282
                          1       5    4py              30.653048       0.529694
                                                        12.924389       0.985876
                                                         4.968377       0.526402
                                                         1.851828       0.343987
                                                         0.673565      -0.055607
                                                         0.168626      -0.084885
                                                         0.059428      -0.021282
                          1       5    4pz              30.653048       0.529694
                                                        12.924389       0.985876
                                                         4.968377       0.526402
                                                         1.851828       0.343987
                                                         0.673565      -0.055607
                                                         0.168626      -0.084885
                                                         0.059428      -0.021282

       Atomic covalent radius [Angstrom]:                                  1.360

       Atomic van der Waals radius [Angstrom]:                             1.730

     GTH Potential information for                                   GTH-PBE-q10

       Description:                       Goedecker-Teter-Hutter pseudopotential
                                           Goedecker et al., PRB 54, 1703 (1996)
                                          Hartwigsen et al., PRB 58, 3641 (1998)
                                                      Krack, TCA 114, 145 (2005)

       Gaussian exponent of the core charge distribution:              13.456923
       Electronic configuration (s p d ...):                               4   6

       Parameters of the local part of the GTH pseudopotential:

                          rloc        C1          C2          C3          C4
                        0.192758  -20.575391    3.040167

       Parameters of the non-local part of the GTH pseudopotential:

                   l      r(l)      h(i,j,l)

                   0    0.141407   41.047292
                   1    0.102932   -9.985626

  2. Atomic kind: H                                     Number of atoms:      18

     Orbital Basis Set                                     DZVP-MOLOPT-SR-GTH-q1

       Number of orbital shell sets:                                           1
       Number of orbital shells:                                               3
       Number of primitive Cartesian functions:                                5
       Number of Cartesian basis functions:                                    5
       Number of spherical basis functions:                                    5
       Norm type:                                                              2

       Normalised Cartesian orbitals:

                        Set   Shell   Orbital            Exponent    Coefficient

                          1       1    2s               10.068468      -0.133023
                                                         2.680223      -0.177618
                                                         0.791502      -0.258419
                                                         0.239116      -0.107525
                                                         0.082193      -0.014019

                          1       2    3s               10.068468       0.344673
                                                         2.680223       1.819821
                                                         0.791502      -0.999069
                                                         0.239116       0.017430
                                                         0.082193       0.082660

                          1       3    3px              10.068468       0.155326
                                                         2.680223       0.367157
                                                         0.791502       0.311480
                                                         0.239116       0.080105
                                                         0.082193       0.033440
                          1       3    3py              10.068468       0.155326
                                                         2.680223       0.367157
                                                         0.791502       0.311480
                                                         0.239116       0.080105
                                                         0.082193       0.033440
                          1       3    3pz              10.068468       0.155326
                                                         2.680223       0.367157
                                                         0.791502       0.311480
                                                         0.239116       0.080105
                                                         0.082193       0.033440

       Atomic covalent radius [Angstrom]:                                  0.320

       Atomic van der Waals radius [Angstrom]:                             1.090

     GTH Potential information for                                    GTH-PBE-q1

       Description:                       Goedecker-Teter-Hutter pseudopotential
                                           Goedecker et al., PRB 54, 1703 (1996)
                                          Hartwigsen et al., PRB 58, 3641 (1998)
                                                      Krack, TCA 114, 145 (2005)

       Gaussian exponent of the core charge distribution:              12.500000
       Electronic configuration (s p d ...):                                   1

       Parameters of the local part of the GTH pseudopotential:

                          rloc        C1          C2          C3          C4
                        0.200000   -4.178900    0.724463

  3. Atomic kind: C                                     Number of atoms:      72

     Orbital Basis Set                                     DZVP-MOLOPT-SR-GTH-q4

       Number of orbital shell sets:                                           1
       Number of orbital shells:                                               5
       Number of primitive Cartesian functions:                                5
       Number of Cartesian basis functions:                                   14
       Number of spherical basis functions:                                   13
       Norm type:                                                              2

       Normalised Cartesian orbitals:

                        Set   Shell   Orbital            Exponent    Coefficient

                          1       1    2s                5.605331       0.322515
                                                         2.113016       0.213043
                                                         0.769911      -0.209686
                                                         0.348157      -0.219794
                                                         0.128212      -0.022789

                          1       2    3s                5.605331       0.552234
                                                         2.113016       0.082072
                                                         0.769911       0.007843
                                                         0.348157       0.136893
                                                         0.128212       0.074283

                          1       3    3px               5.605331      -0.703879
                                                         2.113016      -0.642521
                                                         0.769911      -0.374851
                                                         0.348157      -0.139743
                                                         0.128212      -0.027849
                          1       3    3py               5.605331      -0.703879
                                                         2.113016      -0.642521
                                                         0.769911      -0.374851
                                                         0.348157      -0.139743
                                                         0.128212      -0.027849
                          1       3    3pz               5.605331      -0.703879
                                                         2.113016      -0.642521
                                                         0.769911      -0.374851
                                                         0.348157      -0.139743
                                                         0.128212      -0.027849

                          1       4    4px               5.605331      -0.480376
                                                         2.113016      -0.552894
                                                         0.769911      -0.316145
                                                         0.348157       0.210505
                                                         0.128212       0.076095
                          1       4    4py               5.605331      -0.480376
                                                         2.113016      -0.552894
                                                         0.769911      -0.316145
                                                         0.348157       0.210505
                                                         0.128212       0.076095
                          1       4    4pz               5.605331      -0.480376
                                                         2.113016      -0.552894
                                                         0.769911      -0.316145
                                                         0.348157       0.210505
                                                         0.128212       0.076095

                          1       5    4dx2              5.605331       0.640026
                                                         2.113016       0.274300
                                                         0.769911       0.446711
                                                         0.348157       0.028674
                                                         0.128212       0.029790
                          1       5    4dxy              5.605331       1.108557
                                                         2.113016       0.475102
                                                         0.769911       0.773726
                                                         0.348157       0.049666
                                                         0.128212       0.051599
                          1       5    4dxz              5.605331       1.108557
                                                         2.113016       0.475102
                                                         0.769911       0.773726
                                                         0.348157       0.049666
                                                         0.128212       0.051599
                          1       5    4dy2              5.605331       0.640026
                                                         2.113016       0.274300
                                                         0.769911       0.446711
                                                         0.348157       0.028674
                                                         0.128212       0.029790
                          1       5    4dyz              5.605331       1.108557
                                                         2.113016       0.475102
                                                         0.769911       0.773726
                                                         0.348157       0.049666
                                                         0.128212       0.051599
                          1       5    4dz2              5.605331       0.640026
                                                         2.113016       0.274300
                                                         0.769911       0.446711
                                                         0.348157       0.028674
                                                         0.128212       0.029790

       Atomic covalent radius [Angstrom]:                                  0.770

       Atomic van der Waals radius [Angstrom]:                             1.700

     GTH Potential information for                                    GTH-PBE-q4

       Description:                       Goedecker-Teter-Hutter pseudopotential
                                           Goedecker et al., PRB 54, 1703 (1996)
                                          Hartwigsen et al., PRB 58, 3641 (1998)
                                                      Krack, TCA 114, 145 (2005)

       Gaussian exponent of the core charge distribution:               4.364419
       Electronic configuration (s p d ...):                               2   2

       Parameters of the local part of the GTH pseudopotential:

                          rloc        C1          C2          C3          C4
                        0.338471   -8.803674    1.339211

       Parameters of the non-local part of the GTH pseudopotential:

                   l      r(l)      h(i,j,l)

                   0    0.302576    9.622487
                   1    0.291507

  4. Atomic kind: O                                     Number of atoms:      54

     Orbital Basis Set                                     DZVP-MOLOPT-SR-GTH-q6

       Number of orbital shell sets:                                           1
       Number of orbital shells:                                               5
       Number of primitive Cartesian functions:                                5
       Number of Cartesian basis functions:                                   14
       Number of spherical basis functions:                                   13
       Norm type:                                                              2

       Normalised Cartesian orbitals:

                        Set   Shell   Orbital            Exponent    Coefficient

                          1       1    2s               10.389228       0.396646
                                                         3.849621       0.208811
                                                         1.388401      -0.301641
                                                         0.496955      -0.274061
                                                         0.162492      -0.033677

                          1       2    3s               10.389228       0.303673
                                                         3.849621       0.240943
                                                         1.388401      -0.313066
                                                         0.496955      -0.043055
                                                         0.162492       0.213991

                          1       3    3px              10.389228      -1.530415
                                                         3.849621      -1.371928
                                                         1.388401      -0.761951
                                                         0.496955      -0.253695
                                                         0.162492      -0.035541
                          1       3    3py              10.389228      -1.530415
                                                         3.849621      -1.371928
                                                         1.388401      -0.761951
                                                         0.496955      -0.253695
                                                         0.162492      -0.035541
                          1       3    3pz              10.389228      -1.530415
                                                         3.849621      -1.371928
                                                         1.388401      -0.761951
                                                         0.496955      -0.253695
                                                         0.162492      -0.035541

                          1       4    4px              10.389228      -0.565392
                                                         3.849621      -0.038231
                                                         1.388401      -0.382373
                                                         0.496955       0.179070
                                                         0.162492       0.122714
                          1       4    4py              10.389228      -0.565392
                                                         3.849621      -0.038231
                                                         1.388401      -0.382373
                                                         0.496955       0.179070
                                                         0.162492       0.122714
                          1       4    4pz              10.389228      -0.565392
                                                         3.849621      -0.038231
                                                         1.388401      -0.382373
                                                         0.496955       0.179070
                                                         0.162492       0.122714

                          1       5    4dx2             10.389228       1.867377
                                                         3.849621       0.670994
                                                         1.388401       1.353441
                                                         0.496955       0.273538
                                                         0.162492       0.006620
                          1       5    4dxy             10.389228       3.234392
                                                         3.849621       1.162195
                                                         1.388401       2.344229
                                                         0.496955       0.473781
                                                         0.162492       0.011466
                          1       5    4dxz             10.389228       3.234392
                                                         3.849621       1.162195
                                                         1.388401       2.344229
                                                         0.496955       0.473781
                                                         0.162492       0.011466
                          1       5    4dy2             10.389228       1.867377
                                                         3.849621       0.670994
                                                         1.388401       1.353441
                                                         0.496955       0.273538
                                                         0.162492       0.006620
                          1       5    4dyz             10.389228       3.234392
                                                         3.849621       1.162195
                                                         1.388401       2.344229
                                                         0.496955       0.473781
                                                         0.162492       0.011466
                          1       5    4dz2             10.389228       1.867377
                                                         3.849621       0.670994
                                                         1.388401       1.353441
                                                         0.496955       0.273538
                                                         0.162492       0.006620

       Atomic covalent radius [Angstrom]:                                  0.730

       Atomic van der Waals radius [Angstrom]:                             1.520

     GTH Potential information for                                    GTH-PBE-q6

       Description:                       Goedecker-Teter-Hutter pseudopotential
                                           Goedecker et al., PRB 54, 1703 (1996)
                                          Hartwigsen et al., PRB 58, 3641 (1998)
                                                      Krack, TCA 114, 145 (2005)

       Gaussian exponent of the core charge distribution:               8.360253
       Electronic configuration (s p d ...):                               2   4

       Parameters of the local part of the GTH pseudopotential:

                          rloc        C1          C2          C3          C4
                        0.244554  -16.667215    2.487311

       Parameters of the non-local part of the GTH pseudopotential:

                   l      r(l)      h(i,j,l)

                   0    0.220956   18.337458
                   1    0.211332


 MOLECULE KIND INFORMATION


 All atoms are their own molecule, skipping detailed information


 TOTAL NUMBERS AND MAXIMUM NUMBERS

  Total number of            - Atomic kinds:                                   4
                             - Atoms:                                        162
                             - Shell sets:                                   162
                             - Shells:                                       774
                             - Primitive Cartesian functions:                846
                             - Cartesian basis functions:                   2016
                             - Spherical basis functions:                   1890

  Maximum angular momentum of- Orbital basis functions:                        2
                             - Local part of the GTH pseudopotential:          2
                             - Non-local part of the GTH pseudopotential:      1


 MODULE QUICKSTEP: ATOMIC COORDINATES IN ANGSTROM

   Atom Kind Element         X             Y             Z       Z(eff)     Mass
      1    1 Mg   12     -4.269691     21.648627      3.275860  10.0000  24.3050
      2    1 Mg   12      9.522471      0.567602      0.961863  10.0000  24.3050
      3    1 Mg   12      7.815170      0.418124      5.589858  10.0000  24.3050
      4    1 Mg   12      4.269704      8.530503      5.980137  10.0000  24.3050
      5    1 Mg   12      3.545452      6.977198      1.352142  10.0000  24.3050
      6    1 Mg   12      5.252793      7.126652      3.666140  10.0000  24.3050
      7    1 Mg   12     21.866222      6.559051      5.589858  10.0000  24.3050
      8    1 Mg   12     -3.545466      8.112379      3.275860  10.0000  24.3050
      9    1 Mg   12     20.883094      7.962924      0.961863  10.0000  24.3050
     10    1 Mg   12     -8.798272     16.075303      1.352142  10.0000  24.3050
     11    1 Mg   12     16.613416     14.521975      3.666140  10.0000  24.3050
     12    1 Mg   12     -7.815144     14.671429      5.980137  10.0000  24.3050
     13    1 Mg   12      8.798246     14.103850      0.961863  10.0000  24.3050
     14    1 Mg   12      9.522498     15.657155      5.589858  10.0000  24.3050
     15    1 Mg   12      7.815157     15.507701      3.275860  10.0000  24.3050
     16    1 Mg   12     17.337641      0.985726      3.666140  10.0000  24.3050
     17    1 Mg   12      3.545479     22.066752      5.980137  10.0000  24.3050
     18    1 Mg   12      5.252780     22.216229      1.352142  10.0000  24.3050
     19    2 H     1     -0.304758     22.044208      1.012470   1.0000   1.0079
     20    2 H     1      7.197448      3.803545      5.640465   1.0000   1.0079
     21    2 H     1     -6.892690     19.420954      3.326468   1.0000   1.0079
     22    2 H     1      0.304732      8.134945      1.301535   1.0000   1.0079
     23    2 H     1      5.870515      3.741232      3.615532   1.0000   1.0079
     24    2 H     1      6.892703     10.758176      5.929530   1.0000   1.0079
     25    2 H     1     -0.304745      6.954631      3.326468   1.0000   1.0079
     26    2 H     1     -5.870528     11.348344      1.012470   1.0000   1.0079
     27    2 H     1     19.243223      4.331378      5.640465   1.0000   1.0079
     28    2 H     1     13.372695     15.679722      3.615532   1.0000   1.0079
     29    2 H     1     18.938478     11.286009      5.929530   1.0000   1.0079
     30    2 H     1     -6.175273     18.302976      1.301535   1.0000   1.0079
     31    2 H     1     12.763218     14.499408      5.640465   1.0000   1.0079
     32    2 H     1      7.197435     18.893121      3.326468   1.0000   1.0079
     33    2 H     1      6.175247     11.876177      1.012470   1.0000   1.0079
     34    2 H     1     13.372708      0.590145      5.929530   1.0000   1.0079
     35    2 H     1      5.870502     18.830809      1.301535   1.0000   1.0079
     36    2 H     1     19.960640      3.213399      3.615532   1.0000   1.0079
     37    3 C     6     10.814134      0.321476      5.278440   4.0000  12.0107
     38    3 C     6      7.382477      1.659777      2.964442   4.0000  12.0107
     39    3 C     6     -5.128661     20.653100      0.650445   4.0000  12.0107
     40    3 C     6      2.253829      7.223301      3.977558   4.0000  12.0107
     41    3 C     6      5.685486      5.885000      6.291555   4.0000  12.0107
     42    3 C     6      5.128635      9.526052      1.663560   4.0000  12.0107
     43    3 C     6     11.940330      0.122293      4.332940   4.0000  12.0107
     44    3 C     6      6.991876      2.734683      2.018942   4.0000  12.0107
     45    3 C     6     -5.864256     19.777377      6.646944   4.0000  12.0107
     46    3 C     6      1.127633      7.422483      4.923058   4.0000  12.0107
     47    3 C     6      6.076087      4.810094      0.295056   4.0000  12.0107
     48    3 C     6      5.864229     10.401776      2.609060   4.0000  12.0107
     49    3 C     6     -1.330330     22.406810      2.926518   4.0000  12.0107
     50    3 C     6      7.396211      2.734071      0.612513   4.0000  12.0107
     51    3 C     6     -6.065881     20.127825      5.240516   4.0000  12.0107
     52    3 C     6      1.330304      7.772343      6.329487   4.0000  12.0107
     53    3 C     6      5.671752      4.810705      1.701484   4.0000  12.0107
     54    3 C     6      6.065894     10.051305      4.015482   4.0000  12.0107
     55    3 C     6     -0.181527     22.303371      2.098199   4.0000  12.0107
     56    3 C     6      6.911390      3.780684      6.726194   4.0000  12.0107
     57    3 C     6     -6.729864     19.184652      4.412196   4.0000  12.0107
     58    3 C     6      0.181501      7.875782      0.215806   4.0000  12.0107
     59    3 C     6      6.156573      3.764093      2.529804   4.0000  12.0107
     60    3 C     6      6.729877     10.994479      4.843801   4.0000  12.0107
     61    3 C     6     -2.253842      7.866275      0.650445   4.0000  12.0107
     62    3 C     6     20.450440      9.204554      5.278440   4.0000  12.0107
     63    3 C     6     21.007252      5.563524      2.964442   4.0000  12.0107
     64    3 C     6     15.321792     14.768078      6.291555   4.0000  12.0107
     65    3 C     6     -7.382490     13.429799      1.663560   4.0000  12.0107
     66    3 C     6     -7.939302     17.070829      3.977558   4.0000  12.0107
     67    3 C     6     -1.127646      7.667093      6.646944   4.0000  12.0107
     68    3 C     6     20.059839     10.279459      4.332940   4.0000  12.0107
     69    3 C     6     20.271657      4.687801      2.018942   4.0000  12.0107
     70    3 C     6     14.195596     14.967260      0.295056   4.0000  12.0107
     71    3 C     6     -6.991889     12.354894      2.609060   4.0000  12.0107
     72    3 C     6     -7.203707     17.946552      4.923058   4.0000  12.0107
     73    3 C     6     -1.330317      7.317234      5.240516   4.0000  12.0107
     74    3 C     6     -5.671765     10.278871      2.926518   4.0000  12.0107
     75    3 C     6     20.070032      5.038249      0.612513   4.0000  12.0107
     76    3 C     6     14.398267     15.317120      1.701484   4.0000  12.0107
     77    3 C     6     18.739715     12.355482      4.015482   4.0000  12.0107
     78    3 C     6     -7.002082     17.596105      6.329487   4.0000  12.0107
     79    3 C     6     -0.181514      7.213795      4.412196   4.0000  12.0107
     80    3 C     6     -6.156586     11.325483      2.098199   4.0000  12.0107
     81    3 C     6     19.406049      4.095075      6.726194   4.0000  12.0107
     82    3 C     6     13.249464     15.420559      2.529804   4.0000  12.0107
     83    3 C     6     19.224536     11.308870      4.843801   4.0000  12.0107
     84    3 C     6     -6.338099     18.539278      0.215806   4.0000  12.0107
     85    3 C     6     10.814121     15.411052      2.964442   4.0000  12.0107
     86    3 C     6      7.382464     16.749354      0.650445   4.0000  12.0107
     87    3 C     6      7.939315     13.108301      5.278440   4.0000  12.0107
     88    3 C     6      2.253816     22.312878      1.663560   4.0000  12.0107
     89    3 C     6      5.685473     20.974576      3.977558   4.0000  12.0107
     90    3 C     6     18.196611      1.981253      6.291555   4.0000  12.0107
     91    3 C     6     11.940317     15.211870      2.018942   4.0000  12.0107
     92    3 C     6      6.991863     17.824259      6.646944   4.0000  12.0107
     93    3 C     6      7.203721     12.232578      4.332940   4.0000  12.0107
     94    3 C     6      1.127620     22.512060      2.609060   4.0000  12.0107
     95    3 C     6      6.076074     19.899671      4.923058   4.0000  12.0107
     96    3 C     6     18.932206      2.856976      0.295056   4.0000  12.0107
     97    3 C     6     11.737646     14.862011      0.612513   4.0000  12.0107
     98    3 C     6      7.396198     17.823648      5.240516   4.0000  12.0107
     99    3 C     6      7.002056     12.583048      2.926518   4.0000  12.0107
    100    3 C     6     14.398280      0.227543      4.015482   4.0000  12.0107
    101    3 C     6      5.671739     19.900282      6.329487   4.0000  12.0107
    102    3 C     6     19.133831      2.506528      1.701484   4.0000  12.0107
    103    3 C     6     12.886449     14.758572      6.726194   4.0000  12.0107
    104    3 C     6      6.911377     18.870260      4.412196   4.0000  12.0107
    105    3 C     6      6.338073     11.639875      2.098199   4.0000  12.0107
    106    3 C     6     13.249477      0.330982      4.843801   4.0000  12.0107
    107    3 C     6      6.156560     18.853669      0.215806   4.0000  12.0107
    108    3 C     6     19.797814      3.449702      2.529804   4.0000  12.0107
    109    4 O     8      9.576338      0.113240      4.815756   6.0000  15.9994
    110    4 O     8      8.181713      0.691932      2.501758   6.0000  15.9994
    111    4 O     8     -4.690100     21.829181      0.187760   6.0000  15.9994
    112    4 O     8      3.491626      7.431537      4.440242   6.0000  15.9994
    113    4 O     8      4.886250      6.852845      6.754240   6.0000  15.9994
    114    4 O     8      4.690074      8.349971      2.126244   6.0000  15.9994
    115    4 O     8     11.001789      0.689963      6.550006   6.0000  15.9994
    116    4 O     8      6.969530      1.638048      4.236008   6.0000  15.9994
    117    4 O     8     -4.903369     20.306342      1.922011   6.0000  15.9994
    118    4 O     8      2.066174      6.854814      2.705992   6.0000  15.9994
    119    4 O     8      6.098433      5.906729      5.019989   6.0000  15.9994
    120    4 O     8      4.903343      9.872811      0.391994   6.0000  15.9994
    121    4 O     8     -2.574269     22.171639      2.363730   6.0000  15.9994
    122    4 O     8      8.221844      1.774375      0.049726   6.0000  15.9994
    123    4 O     8     -5.647576     21.322693      4.677728   6.0000  15.9994
    124    4 O     8      2.574242      8.007514      6.892274   6.0000  15.9994
    125    4 O     8      4.846119      5.770402      2.264272   6.0000  15.9994
    126    4 O     8      5.647589      8.856438      4.578270   6.0000  15.9994
    127    4 O     8     -3.491639      7.658039      0.187760   6.0000  15.9994
    128    4 O     8     21.249676      8.236709      4.815756   6.0000  15.9994
    129    4 O     8     21.445813      6.739605      2.501758   6.0000  15.9994
    130    4 O     8     16.559589     14.976314      6.754240   6.0000  15.9994
    131    4 O     8     -8.181726     14.397644      2.126244   6.0000  15.9994
    132    4 O     8     -8.377863     15.894748      4.440242   6.0000  15.9994
    133    4 O     8     -2.066187      8.234763      1.922011   6.0000  15.9994
    134    4 O     8     20.037493      9.182825      6.550006   6.0000  15.9994
    135    4 O     8     21.232544      5.216766      4.236008   6.0000  15.9994
    136    4 O     8     15.134137     14.399591      5.019989   6.0000  15.9994
    137    4 O     8     -6.969543     13.451528      0.391994   6.0000  15.9994
    138    4 O     8     -8.164594     17.417588      2.705992   6.0000  15.9994
    139    4 O     8     -2.574255      7.082063      4.677728   6.0000  15.9994
    140    4 O     8     -4.846132      9.319174      2.363730   6.0000  15.9994
    141    4 O     8     20.488337      6.233116      0.049726   6.0000  15.9994
    142    4 O     8     15.642205     15.552291      2.264272   6.0000  15.9994
    143    4 O     8     17.914082     13.315179      4.578270   6.0000  15.9994
    144    4 O     8     -7.420387     16.401237      6.892274   6.0000  15.9994
    145    4 O     8      9.576324     15.202816      2.501758   6.0000  15.9994
    146    4 O     8      8.181700     15.781509      0.187760   6.0000  15.9994
    147    4 O     8      8.377876     14.284382      4.815756   6.0000  15.9994
    148    4 O     8      3.491612     22.521114      2.126244   6.0000  15.9994
    149    4 O     8      4.886237     21.942421      4.440242   6.0000  15.9994
    150    4 O     8     17.758050      0.805172      6.754240   6.0000  15.9994
    151    4 O     8     11.001776     15.779539      4.236008   6.0000  15.9994
    152    4 O     8      6.969517     16.727625      1.922011   6.0000  15.9994
    153    4 O     8      8.164607     12.761543      6.550006   6.0000  15.9994
    154    4 O     8      2.066161     21.944390      0.391994   6.0000  15.9994
    155    4 O     8      6.098420     20.996305      2.705992   6.0000  15.9994
    156    4 O     8     17.971319      2.328011      5.019989   6.0000  15.9994
    157    4 O     8     10.493708     14.626840      0.049726   6.0000  15.9994
    158    4 O     8      8.221831     16.863951      4.677728   6.0000  15.9994
    159    4 O     8      7.420361     13.777916      2.363730   6.0000  15.9994
    160    4 O     8     15.642219      0.462714      4.578270   6.0000  15.9994
    161    4 O     8      4.846106     20.859978      6.892274   6.0000  15.9994
    162    4 O     8     18.715526      1.311661      2.264272   6.0000  15.9994



 SCF PARAMETERS         Density guess:                                    ATOMIC
                        --------------------------------------------------------
                        max_scf:                                              50
                        max_scf_history:                                       0
                        max_diis:                                              4
                        --------------------------------------------------------
                        eps_scf:                                        1.00E-07
                        eps_scf_history:                                0.00E+00
                        eps_diis:                                       1.00E-01
                        eps_eigval:                                     1.00E-05
                        --------------------------------------------------------
                        level_shift [a.u.]:                             0.000000
                        added MOs                                        80    0
                        --------------------------------------------------------
                        Mixing method:                           DIRECT_P_MIXING
                        --------------------------------------------------------
                        Smear method:                                FERMI_DIRAC
                        Electronic temperature [K]:                        300.0
                        Electronic temperature [a.u.]:                  9.50E-04
                        Accuracy threshold:                             1.00E-10
                        --------------------------------------------------------
                        Outer loop SCF in use 
                        No variables optimised in outer loop
                        eps_scf                                         1.00E-07
                        max_scf                                               10
                        No outer loop optimization
                        step_size                                       5.00E-01

 PW_GRID| Information for grid number                                          1
 PW_GRID| Grid distributed over                                    36 processors
 PW_GRID| Real space group dimensions                                    36    1
 PW_GRID| the grid is blocked:                                                NO
 PW_GRID| Cutoff [a.u.]                                                    625.0
 PW_GRID| spherical cutoff:                                                   NO
 PW_GRID|   Bounds   1           -288     287                Points:         576
 PW_GRID|   Bounds   2           -288     287                Points:         576
 PW_GRID|   Bounds   3            -75      74                Points:         150
 PW_GRID| Volume element (a.u.^3)  0.5569E-03     Volume (a.u.^3)     27713.2058
 PW_GRID| Grid span                                                    FULLSPACE
 PW_GRID|   Distribution                         Average         Max         Min
 PW_GRID|   G-Vectors                          1382400.0     1382400     1382400
 PW_GRID|   G-Rays                                2400.0        2400        2400
 PW_GRID|   Real Space Points                  1382400.0     1382400     1382400

 PW_GRID| Information for grid number                                          2
 PW_GRID| Number of the reference grid                                         1
 PW_GRID| Grid distributed over                                    36 processors
 PW_GRID| Real space group dimensions                                    36    1
 PW_GRID| the grid is blocked:                                                NO
 PW_GRID| Cutoff [a.u.]                                                    208.3
 PW_GRID| spherical cutoff:                                                   NO
 PW_GRID|   Bounds   1           -162     161                Points:         324
 PW_GRID|   Bounds   2           -162     161                Points:         324
 PW_GRID|   Bounds   3            -45      44                Points:          90
 PW_GRID| Volume element (a.u.^3)  0.2933E-02     Volume (a.u.^3)     27713.2058
 PW_GRID| Grid span                                                    FULLSPACE
 PW_GRID|   Distribution                         Average         Max         Min
 PW_GRID|   G-Vectors                           262440.0      266004      259200
 PW_GRID|   G-Rays                                 810.0         821         800
 PW_GRID|   Real Space Points                   262440.0      262440      262440

 PW_GRID| Information for grid number                                          3
 PW_GRID| Number of the reference grid                                         1
 PW_GRID| Grid distributed over                                    36 processors
 PW_GRID| Real space group dimensions                                    36    1
 PW_GRID| the grid is blocked:                                                NO
 PW_GRID| Cutoff [a.u.]                                                     69.4
 PW_GRID| spherical cutoff:                                                   NO
 PW_GRID|   Bounds   1            -96      95                Points:         192
 PW_GRID|   Bounds   2            -96      95                Points:         192
 PW_GRID|   Bounds   3            -27      26                Points:          54
 PW_GRID| Volume element (a.u.^3)  0.1392E-01     Volume (a.u.^3)     27713.2058
 PW_GRID| Grid span                                                    FULLSPACE
 PW_GRID|   Distribution                         Average         Max         Min
 PW_GRID|   G-Vectors                            55296.0       56064       54144
 PW_GRID|   G-Rays                                 288.0         292         282
 PW_GRID|   Real Space Points                    55296.0       62208       51840

 PW_GRID| Information for grid number                                          4
 PW_GRID| Number of the reference grid                                         1
 PW_GRID| Grid distributed over                                    36 processors
 PW_GRID| Real space group dimensions                                    36    1
 PW_GRID| the grid is blocked:                                                NO
 PW_GRID| Cutoff [a.u.]                                                     23.1
 PW_GRID| spherical cutoff:                                                   NO
 PW_GRID|   Bounds   1            -54      53                Points:         108
 PW_GRID|   Bounds   2            -54      53                Points:         108
 PW_GRID|   Bounds   3            -15      14                Points:          30
 PW_GRID| Volume element (a.u.^3)  0.7920E-01     Volume (a.u.^3)     27713.2058
 PW_GRID| Grid span                                                    FULLSPACE
 PW_GRID|   Distribution                         Average         Max         Min
 PW_GRID|   G-Vectors                             9720.0       10476        9072
 PW_GRID|   G-Rays                                  90.0          97          84
 PW_GRID|   Real Space Points                     9720.0        9720        9720

 PW_GRID| Information for grid number                                          5
 PW_GRID| Number of the reference grid                                         1
 PW_GRID| Grid distributed over                                    36 processors
 PW_GRID| Real space group dimensions                                    36    1
 PW_GRID| the grid is blocked:                                                NO
 PW_GRID| Cutoff [a.u.]                                                      7.7
 PW_GRID| spherical cutoff:                                                   NO
 PW_GRID|   Bounds   1            -32      31                Points:          64
 PW_GRID|   Bounds   2            -32      31                Points:          64
 PW_GRID|   Bounds   3             -9       8                Points:          18
 PW_GRID| Volume element (a.u.^3)  0.3759         Volume (a.u.^3)     27713.2058
 PW_GRID| Grid span                                                    FULLSPACE
 PW_GRID|   Distribution                         Average         Max         Min
 PW_GRID|   G-Vectors                             2048.0        2368        1664
 PW_GRID|   G-Rays                                  32.0          37          26
 PW_GRID|   Real Space Points                     2048.0        2304        1152

 POISSON| Solver                                                        PERIODIC
 POISSON| Periodicity                                                        XYZ

 RS_GRID| Information for grid number                                          1
 RS_GRID|   Bounds   1           -288     287                Points:         576
 RS_GRID|   Bounds   2           -288     287                Points:         576
 RS_GRID|   Bounds   3            -75      74                Points:         150
 RS_GRID| Real space distribution over                                  6 groups
 RS_GRID| Real space distribution along direction                              1
 RS_GRID| Border size                                                         40
 RS_GRID| Real space distribution over                                  6 groups
 RS_GRID| Real space distribution along direction                              2
 RS_GRID| Border size                                                         40
 RS_GRID|   Distribution                         Average         Max         Min
 RS_GRID|   Planes                                 176.0         176         176
 RS_GRID|   Distribution                         Average         Max         Min
 RS_GRID|   Planes                                 176.0         176         176

 RS_GRID| Information for grid number                                          2
 RS_GRID|   Bounds   1           -162     161                Points:         324
 RS_GRID|   Bounds   2           -162     161                Points:         324
 RS_GRID|   Bounds   3            -45      44                Points:          90
 RS_GRID| Real space distribution over                                  6 groups
 RS_GRID| Real space distribution along direction                              1
 RS_GRID| Border size                                                         33
 RS_GRID| Real space distribution over                                  6 groups
 RS_GRID| Real space distribution along direction                              2
 RS_GRID| Border size                                                         33
 RS_GRID|   Distribution                         Average         Max         Min
 RS_GRID|   Planes                                 120.0         120         120
 RS_GRID|   Distribution                         Average         Max         Min
 RS_GRID|   Planes                                 120.0         120         120

 RS_GRID| Information for grid number                                          3
 RS_GRID|   Bounds   1            -96      95                Points:         192
 RS_GRID|   Bounds   2            -96      95                Points:         192
 RS_GRID|   Bounds   3            -27      26                Points:          54
 RS_GRID| Real space fully replicated
 RS_GRID| Group size                                                           1

 RS_GRID| Information for grid number                                          4
 RS_GRID|   Bounds   1            -54      53                Points:         108
 RS_GRID|   Bounds   2            -54      53                Points:         108
 RS_GRID|   Bounds   3            -15      14                Points:          30
 RS_GRID| Real space fully replicated
 RS_GRID| Group size                                                           1

 RS_GRID| Information for grid number                                          5
 RS_GRID|   Bounds   1            -32      31                Points:          64
 RS_GRID|   Bounds   2            -32      31                Points:          64
 RS_GRID|   Bounds   3             -9       8                Points:          18
 RS_GRID| Real space fully replicated
 RS_GRID| Group size                                                           1

 Number of electrons:                                                        810
 Number of occupied orbitals:                                                405
 Number of molecular orbitals:                                               485

 Number of orbital functions:                                               1890
 Number of independent orbital functions:                                   1890

 Extrapolation method: initial_guess

 Atomic guess: The first density matrix is obtained in terms of atomic orbitals
               and electronic configurations assigned to each atomic kind

 Guess for atomic kind: Mg

 Electronic structure
    Total number of core electrons                                          2.00
    Total number of valence electrons                                      10.00
    Total number of electrons                                              12.00
    Multiplicity                                                   not specified
    S   [  2.00] 2.00  2.00
    P      6.00


 *******************************************************************************
                  Iteration          Convergence                     Energy [au]
 *******************************************************************************
                          1        0.485354                     -62.902226664244
                          2        0.105692                     -62.921913697109
                          3        0.335819E-02                 -62.923394100147
                          4        0.696592E-04                 -62.923398953249
                          5        0.319399E-06                 -62.923398954581

 Energy components [Hartree]           Total Energy ::          -62.923398954581
                                        Band Energy ::          -16.036073473620
                                     Kinetic Energy ::           51.571533994436
                                   Potential Energy ::         -114.494932949017
                                      Virial (-V/T) ::            2.220118815185
                                        Core Energy ::         -104.170174203299
                                          XC Energy ::           -8.249975644758
                                     Coulomb Energy ::           49.496750893476
                       Total Pseudopotential Energy ::         -155.802053789472
                       Local Pseudopotential Energy ::         -154.930913553489
                    Nonlocal Pseudopotential Energy ::           -0.871140235983
                                        Confinement ::            0.603455917368

 Orbital energies  State     L     Occupation   Energy[a.u.]          Energy[eV]

                       1     0          2.000      -2.886409          -78.543171
                       2     0          2.000      -0.139325           -3.791224

                       1     1          6.000      -1.664101          -45.282493


 Total Electron Density at R=0:                                         0.000687

 Guess for atomic kind: H

 Electronic structure
    Total number of core electrons                                          0.00
    Total number of valence electrons                                       1.00
    Total number of electrons                                               1.00
    Multiplicity                                                   not specified
    S      1.00


 *******************************************************************************
                  Iteration          Convergence                     Energy [au]
 *******************************************************************************
                          1        0.250972E-02                  -0.375256815885
                          2        0.570752E-04                  -0.375258666164
                          3        0.832404E-09                  -0.375258667122

 Energy components [Hartree]           Total Energy ::           -0.375258667122
                                        Band Energy ::           -0.076317618391
                                     Kinetic Energy ::            0.771356566341
                                   Potential Energy ::           -1.146615233463
                                      Virial (-V/T) ::            1.486491829455
                                        Core Energy ::           -0.456090715790
                                          XC Energy ::           -0.314218627334
                                     Coulomb Energy ::            0.395050676003
                       Total Pseudopotential Energy ::           -1.238482237174
                       Local Pseudopotential Energy ::           -1.238482237174
                    Nonlocal Pseudopotential Energy ::            0.000000000000
                                        Confinement ::            0.110349550431

 Orbital energies  State     L     Occupation   Energy[a.u.]          Energy[eV]

                       1     0          1.000      -0.076318           -2.076708


 Total Electron Density at R=0:                                         0.425022

 Guess for atomic kind: C

 Electronic structure
    Total number of core electrons                                          2.00
    Total number of valence electrons                                       4.00
    Total number of electrons                                               6.00
    Multiplicity                                                   not specified
    S   [  2.00] 2.00
    P      2.00


 *******************************************************************************
                  Iteration          Convergence                     Energy [au]
 *******************************************************************************
                          1        0.261814E-01                  -5.246264729087
                          2        0.905236E-02                  -5.246529568708
                          3        0.681743E-04                  -5.246565167452
                          4        0.792827E-08                  -5.246565169473

 Energy components [Hartree]           Total Energy ::           -5.246565169473
                                        Band Energy ::           -1.058732595430
                                     Kinetic Energy ::            3.518928170589
                                   Potential Energy ::           -8.765493340062
                                      Virial (-V/T) ::            2.490955460053
                                        Core Energy ::           -8.429377169956
                                          XC Energy ::           -1.450183342358
                                     Coulomb Energy ::            4.632995342842
                       Total Pseudopotential Energy ::          -11.978048809389
                       Local Pseudopotential Energy ::          -12.816738187351
                    Nonlocal Pseudopotential Energy ::            0.838689377962
                                        Confinement ::            0.297434688432

 Orbital energies  State     L     Occupation   Energy[a.u.]          Energy[eV]

                       1     0          2.000      -0.410911          -11.181458

                       1     1          2.000      -0.118455           -3.223332


 Total Electron Density at R=0:                                         0.001337

 Guess for atomic kind: O

 Electronic structure
    Total number of core electrons                                          2.00
    Total number of valence electrons                                       6.00
    Total number of electrons                                               8.00
    Multiplicity                                                   not specified
    S   [  2.00] 2.00
    P      4.00


 *******************************************************************************
                  Iteration          Convergence                     Energy [au]
 *******************************************************************************
                          1        0.702811                     -15.577904332270
                          2        0.612408                     -15.588447180504
                          3        0.955344E-02                 -15.655871208406
                          4        0.223754E-02                 -15.655885053552
                          5        0.157183E-02                 -15.655885461027
                          6        0.124953E-02                 -15.655885607150
                          7        0.312011E-06                 -15.655885858066

 Energy components [Hartree]           Total Energy ::          -15.655885858066
                                        Band Energy ::           -2.983128125584
                                     Kinetic Energy ::           11.754765134683
                                   Potential Energy ::          -27.410650992749
                                      Virial (-V/T) ::            2.331875684345
                                        Core Energy ::          -26.153522949071
                                          XC Energy ::           -3.157392363346
                                     Coulomb Energy ::           13.655029454351
                       Total Pseudopotential Energy ::          -37.943026860963
                       Local Pseudopotential Energy ::          -39.220419683052
                    Nonlocal Pseudopotential Energy ::            1.277392822089
                                        Confinement ::            0.347387772086

 Orbital energies  State     L     Occupation   Energy[a.u.]          Energy[eV]

                       1     0          2.000      -0.861522          -23.443215

                       1     1          4.000      -0.315021           -8.572154


 Total Electron Density at R=0:                                         0.000093
 Re-scaling the density matrix to get the right number of electrons
                  # Electrons              Trace(P)               Scaling factor
                          810               810.247                        1.000


 SCF WAVEFUNCTION OPTIMIZATION

  Step     Update method      Time    Convergence         Total energy    Change
  ------------------------------------------------------------------------------
     1 P_Mix/Diag. 0.20E+00    4.5     1.93595312     -2423.7687672727 -2.42E+03
     2 P_Mix/Diag. 0.20E+00    5.6     1.53013430     -2424.7127130063 -9.44E-01
     3 P_Mix/Diag. 0.20E+00    5.6     1.21054287     -2425.2276029609 -5.15E-01
     4 P_Mix/Diag. 0.20E+00    5.5     0.96038753     -2425.5922137008 -3.65E-01
     5 P_Mix/Diag. 0.20E+00    5.5     0.76376952     -2425.8704731141 -2.78E-01
     6 P_Mix/Diag. 0.20E+00    5.5     0.60848089     -2426.0881122935 -2.18E-01
     7 P_Mix/Diag. 0.20E+00    5.5     0.48538320     -2426.2601406931 -1.72E-01
     8 P_Mix/Diag. 0.20E+00    5.4     0.38754315     -2426.3968314759 -1.37E-01
     9 P_Mix/Diag. 0.20E+00    5.6     0.30962804     -2426.5057518701 -1.09E-01
    10 P_Mix/Diag. 0.20E+00    5.5     0.24749363     -2426.5926844381 -8.69E-02
    11 P_Mix/Diag. 0.20E+00    5.5     0.19789412     -2426.6621345183 -6.95E-02
    12 P_Mix/Diag. 0.20E+00    5.5     0.15827249     -2426.7176502308 -5.55E-02
    13 P_Mix/Diag. 0.20E+00    5.5     0.12660547     -2426.7620432189 -4.44E-02
    14 P_Mix/Diag. 0.20E+00    5.5     0.10128701     -2426.7975497636 -3.55E-02
    15 P_Mix/Diag. 0.20E+00    5.4     0.08103920     -2426.8259525403 -2.84E-02
    16 DIIS/Diag.  0.23E-03    6.2     0.06492765     -2426.8486746201 -2.27E-02
    17 DIIS/Diag.  0.98E-05    5.4     0.00000993     -2426.9395890670 -9.09E-02
    18 DIIS/Diag.  0.12E-04    5.5     0.00001077     -2426.9395890649  2.06E-09
    19 DIIS/Diag.  0.59E-05    5.3     0.00000399     -2426.9395890720 -7.08E-09
    20 DIIS/Diag.  0.23E-05    5.5     0.00000181     -2426.9395890725 -4.86E-10
    21 DIIS/Diag.  0.24E-06    5.4     0.00000030     -2426.9395890727 -1.94E-10
    22 DIIS/Diag.  0.31E-06    5.4     0.00000028     -2426.9395890727  1.82E-12
    23 DIIS/Diag.  0.11E-06    5.4     0.00000011     -2426.9395890727 -3.18E-12
    24 DIIS/Diag.  0.51E-07    5.1     0.00000004     -2426.9395890727 -4.55E-13

  *** SCF run converged in    24 steps ***


[...]
    17 DIIS/Diag.  0.98E-05    5.0     0.00000993     -2426.9395890670 -9.09E-02
    18 DIIS/Diag.  0.12E-04    5.1     0.00001077     -2426.9395890649  2.06E-09
    19 DIIS/Diag.  0.59E-05    5.2     0.00000399     -2426.9395890720 -7.09E-09
    20 DIIS/Diag.  0.23E-05    4.9     0.00000181     -2426.9395890725 -4.86E-10
    21 DIIS/Diag.  0.24E-06    5.1     0.00000030     -2426.9395890727 -1.92E-10
    22 DIIS/Diag.  0.31E-06    5.3     0.00000028     -2426.9395890727  1.36E-12
    23 DIIS/Diag.  0.11E-06    5.0     0.00000011     -2426.9395890727 -3.64E-12
    24 DIIS/Diag.  0.51E-07    5.1     0.00000004     -2426.9395890727 -4.55E-13

  *** SCF run converged in    24 steps ***


  Electronic density on regular grids:       -809.9996942097        0.0003057903
  Core density on regular grids:              809.9999715481       -0.0000284519
  Total charge density on r-space grids:        0.0002773384
  Total charge density g-space grids:           0.0002773384

  Overlap energy of the core charge distribution:               0.00000851087892
  Self energy of the core charge distribution:              -5862.16497799442641
  Core Hamiltonian energy:                                   1726.57335314567808
  Hartree energy:                                            2185.78488617114954
  Exchange-correlation energy:                               -477.13285890594148
  Electronic entropic energy:                                  -0.00000000000000
  Fermi energy:                                                -0.03155883145219

  Total energy:                                             -2426.93958907266187

  outer SCF iter =    1 RMS gradient =   0.00E+00 energy =      -2426.9395890727
  outer SCF loop converged in   1 iterations or   24 steps


 The electron density is written in cube file format to the file:

 MgMOF-74-valence_density-ELECTRON_DENSITY-1_0.cube

 ENERGY| Total FORCE_EVAL ( QS ) energy [a.u.]:            -2426.939589072661875

 -------------------------------------------------------------------------------
 -                                                                             -
 -                                DBCSR STATISTICS                             -
 -                                                                             -
 -------------------------------------------------------------------------------
 COUNTER                                    TOTAL       BLAS       SMM       ACC
 flops     9 x     5 x    69              8048160       0.0%    100.0%      0.0%
 flops     5 x     5 x    69              8197200       0.0%    100.0%      0.0%
 flops     5 x     9 x    69             10730880       0.0%    100.0%      0.0%
 flops     9 x     5 x    64             14929920       0.0%    100.0%      0.0%
 flops     5 x     5 x    64             15206400       0.0%    100.0%      0.0%
 flops     5 x     9 x    64             19906560       0.0%    100.0%      0.0%
 flops     9 x     9 x    69             31387824       0.0%    100.0%      0.0%
 flops     9 x     5 x    96             33592320       0.0%    100.0%      0.0%
 flops     5 x     5 x    96             34214400       0.0%    100.0%      0.0%
 flops     5 x     9 x    96             44789760       0.0%    100.0%      0.0%
 flops     9 x     9 x    64             58226688       0.0%    100.0%      0.0%
 flops     5 x    13 x    69            108501120       0.0%    100.0%      0.0%
 flops    13 x     5 x    69            108501120       0.0%    100.0%      0.0%
 flops     9 x     9 x    96            131010048       0.0%    100.0%      0.0%
 flops     9 x    13 x    69            179026848       0.0%    100.0%      0.0%
 flops    13 x     9 x    69            190651968       0.0%    100.0%      0.0%
 flops     5 x    13 x    64            201277440       0.0%    100.0%      0.0%
 flops    13 x     5 x    64            201277440       0.0%    100.0%      0.0%
 flops     9 x    13 x    64            332107776       0.0%    100.0%      0.0%
 flops    13 x     9 x    64            353673216       0.0%    100.0%      0.0%
 flops     5 x    13 x    96            452874240       0.0%    100.0%      0.0%
 flops    13 x     5 x    96            452874240       0.0%    100.0%      0.0%
 flops     9 x    13 x    96            747242496       0.0%    100.0%      0.0%
 flops    13 x     9 x    96            795764736       0.0%    100.0%      0.0%
 flops    13 x    13 x    69           1647279504       0.0%    100.0%      0.0%
 flops    13 x    13 x    64           3055822848       0.0%    100.0%      0.0%
 flops    13 x    13 x    96           6875601408       0.0%    100.0%      0.0%
 flops inhomo. stacks                           0       0.0%      0.0%      0.0%
 flops total                        16.112717E+09       0.0%    100.0%      0.0%
 flops max/rank                    513.906000E+06       0.0%    100.0%      0.0%
 matmuls inhomo. stacks                         0       0.0%      0.0%      0.0%
 matmuls total                             755568       0.0%    100.0%      0.0%
 number of processed stacks                 44208       0.0%    100.0%      0.0%
 average stack size                                     0.0      17.1       0.0
 marketing flops                    69.441610E+09
 -------------------------------------------------------------------------------
 # multiplications                             24
 max memory usage/rank             841.920512E+06
 # max total images/rank                        1
 # max 3D layers                                1
 # MPI messages exchanged                    8640
 MPI messages size (bytes):
  total size                         1.759968E+09
  min size                         161.280000E+03
  max size                         241.920000E+03
  average size                     203.700000E+03
 MPI breakdown and total messages size (bytes):
             size <=      128                   0                        0
       128 < size <=     8192                   0                        0
      8192 < size <=    32768                   0                        0
     32768 < size <=   131072                   0                        0
    131072 < size <=  4194304                8640               1759968000
   4194304 < size <= 16777216                   0                        0
  16777216 < size                               0                        0
 -------------------------------------------------------------------------------
 -                                                                             -
 -                      DBCSR MESSAGE PASSING PERFORMANCE                      -
 -                                                                             -
 -------------------------------------------------------------------------------
 ROUTINE             CALLS      AVE VOLUME [Bytes]
 MP_Bcast               28                     12.
 MP_Allreduce          242                     13.
 MP_Alltoall           960                 127874.
 MP_ISend              576                  88867.
 MP_IRecv              576                  82147.
 -------------------------------------------------------------------------------

 -------------------------------------------------------------------------------
 -                                                                             -
 -                                DBM STATISTICS                               -
 -                                                                             -
 -------------------------------------------------------------------------------
    M  x    N  x    K                                          COUNT     PERCENT
 -------------------------------------------------------------------------------

 -------------------------------------------------------------------------------
 -                                                                             -
 -                                GRID STATISTICS                              -
 -                                                                             -
 -------------------------------------------------------------------------------
 LP    KERNEL             BACKEND                              COUNT     PERCENT
 4     collocate general  REF                                 819450      27.05%
 4     integrate general  REF                                 786672      25.96%
 3     collocate general  REF                                 588600      19.43%
 3     integrate general  REF                                 565056      18.65%
 2     collocate general  REF                                 134775       4.45%
 2     integrate general  REF                                 129384       4.27%
 0     collocate general  REF                                   5832       0.19%
 -------------------------------------------------------------------------------

 MEMORY| Estimated peak process memory [MiB]                                 809

 -------------------------------------------------------------------------------
 ----                             MULTIGRID INFO                            ----
 -------------------------------------------------------------------------------
 count for grid        1:         686538          cutoff [a.u.]          625.00
 count for grid        2:         520524          cutoff [a.u.]          208.33
 count for grid        3:         405099          cutoff [a.u.]           69.44
 count for grid        4:         195984          cutoff [a.u.]           23.15
 count for grid        5:          71712          cutoff [a.u.]            7.72
 total gridlevel count  :        1879857

 -------------------------------------------------------------------------------
 -                                                                             -
 -                         MESSAGE PASSING PERFORMANCE                         -
 -                                                                             -
 -------------------------------------------------------------------------------

 ROUTINE             CALLS      AVE VOLUME [Bytes]
 MP_Group                5
 MP_Bcast              163                4510639.
 MP_Allreduce          714                   2226.
 MP_Sync                53
 MP_Alltoall           528               46727446.
 MP_SendRecv          2625                 197952.
 MP_ISendRecv         2520                 197952.
 MP_Wait              3807
 MP_comm_split          24
 MP_ISend              990                2390497.
 MP_IRecv              990                2390497.
 MP_Recv                30                 483840.
 MP_Write_All            1               18201600.
 -------------------------------------------------------------------------------


 -------------------------------------------------------------------------------
 -                                                                             -
 -                           R E F E R E N C E S                               -
 -                                                                             -
 -------------------------------------------------------------------------------
 
 CP2K version 2023.1, the CP2K developers group (2023).
 CP2K is freely available from https://www.cp2k.org/ .

 Kuehne,Thomas D.; Iannuzzi,Marcella; Del Ben,Mauro;
 Rybkin,Vladimir V.; Seewald,Patrick; Stein,Frederick; Laino,Teodoro;
 Khaliullin,Rustam Z.; Schuett,Ole; Schiffmann,Florian; Golze,Dorothea;
 Wilhelm,Jan; Chulkov,Sergey; Bani-Hashemian,Mohammad Hossein;
 Weber,Valery; Borstnik,Urban; Taillefumier,Mathieu;
 Jakobovits,Alice Shoshana; Lazzaro,Alfio; Pabst,Hans; Mueller,Tiziano;
 Schade,Robert; Guidon,Manuel; Andermatt,Samuel; Holmberg,Nico;
 Schenter,Gregory K.; Hehn,Anna; Bussy,Augustin; Belleflamme,Fabian;
 Tabacchi,Gloria; Gloess,Andreas; Lass,Michael; Bethune,Iain;
 Mundy,Christopher J.; Plessl,Christian; Watkins,Matt;
 VandeVondele,Joost; Krack,Matthias; Hutter,Juerg. 
 The Journal of Chemical Physics, 152 (19), (2020). 
 CP2K: An electronic structure and molecular dynamics software package -
 Quickstep: Efficient and accurate electronic structure calculations.
 https://doi.org/10.1063/5.0007045

 Schuett, Ole; Messmer, Peter; Hutter, Juerg; VandeVondele, Joost. 
 Electronic Structure Calculations on Graphics Processing Units, John
 Wiley & Sons, Ltd, 173-190 (2016). 
 GPU-Accelerated Sparse Matrix-Matrix Multiplication for
 Linear Scaling Density Functional Theory.
 https://doi.org/10.1002/9781118670712.ch8

 Heinecke, A; Henry, G; Hutchinson, M; Pabst, H. 
 Proceedings of Intl. Supercomputing Conference, 981-991 (2016). 
 LIBXSMM: Accelerating Small Matrix Multiplications
 by Runtime Code Generation.
 https://doi.org/10.1109/SC.2016.83

 Borstnik, U; VandeVondele, J; Weber, V; Hutter, J. 
 PARALLEL COMPUTING, 40 (5-6), 47-58 (2014). 
 Sparse matrix multiplication: The distributed block-compressed sparse
 row library.
 https://doi.org/10.1016/j.parco.2014.03.012

 Hutter, J; Iannuzzi, M; Schiffmann, F; VandeVondele, J. 
 WIREs Comput Mol Sci., 4 (1), 15-25 (2014). 
 CP2K: atomistic simulations of condensed matter systems.
 https://doi.org/10.1002/wcms.1159

 VandeVondele, J; Hutter, J. 
 JOURNAL OF CHEMICAL PHYSICS, 127 (11), 114105 (2007). 
 Gaussian basis sets for accurate calculations on molecular systems in
 gas and condensed phases.
 https://doi.org/10.1063/1.2770708

 Krack, M. 
 THEORETICAL CHEMISTRY ACCOUNTS, 114 (1-3), 145-152 (2005). 
 Pseudopotentials for H to Kr optimized for gradient-corrected
 exchange-correlation functionals.
 https://doi.org/10.1007/s00214-005-0655-y

 VandeVondele, J; Krack, M; Mohamed, F; Parrinello, M; Chassaing, T;
 Hutter, J. COMPUTER PHYSICS COMMUNICATIONS, 167 (2), 103-128 (2005). 
 QUICKSTEP: Fast and accurate density functional calculations using a
 mixed Gaussian and plane waves approach.
 https://doi.org/10.1016/j.cpc.2004.12.014

 Frigo, M; Johnson, SG. 
 PROCEEDINGS OF THE IEEE, 93 (2), 216-231 (2005). 
 The design and implementation of FFTW3.
 https://doi.org/10.1109/JPROC.2004.840301

 Hartwigsen, C; Goedecker, S; Hutter, J. 
 PHYSICAL REVIEW B, 58 (7), 3641-3662 (1998). 
 Relativistic separable dual-space Gaussian pseudopotentials from H to Rn.
 https://doi.org/10.1103/PhysRevB.58.3641

 Lippert, G; Hutter, J; Parrinello, M. 
 MOLECULAR PHYSICS, 92 (3), 477-487 (1997). 
 A hybrid Gaussian and plane wave density functional scheme.
 https://doi.org/10.1080/002689797170220

 Perdew, JP; Burke, K; Ernzerhof, M. 
 PHYSICAL REVIEW LETTERS, 77 (18), 3865-3868 (1996). 
 Generalized gradient approximation made simple.
 https://doi.org/10.1103/PhysRevLett.77.3865

 Goedecker, S; Teter, M; Hutter, J. 
 PHYSICAL REVIEW B, 54 (3), 1703-1710 (1996). 
 Separable dual-space Gaussian pseudopotentials.
 https://doi.org/10.1103/PhysRevB.54.1703


 -------------------------------------------------------------------------------
 -                                                                             -
 -                                T I M I N G                                  -
 -                                                                             -
 -------------------------------------------------------------------------------
 SUBROUTINE                       CALLS  ASD         SELF TIME        TOTAL TIME
                                MAXIMUM       AVERAGE  MAXIMUM  AVERAGE  MAXIMUM
 CP2K                                 1  1.0    0.043    0.061  126.901  126.901
 qs_energies                          1  2.0    0.000    0.000  125.922  125.922
 scf_env_do_scf                       1  3.0    0.000    0.000  121.128  121.134
 scf_env_do_scf_inner_loop           24  4.0    0.001    0.005  121.128  121.134
 qs_ks_update_qs_env                 24  5.0    0.000    0.000   89.254   89.263
 rebuild_ks_matrix                   24  6.0    0.000    0.000   89.247   89.257
 qs_ks_build_kohn_sham_matrix        24  7.0    0.004    0.006   89.247   89.257
 pw_transfer                        511 10.1    0.064    0.078   72.990   78.547
 fft_wrap_pw1pw2                    463 11.2    0.008    0.009   72.001   78.181
 fft_wrap_pw1pw2_630                267 12.7    5.516    6.700   69.454   74.836
 fft3d_ps                           463 13.2   27.507   28.933   53.779   67.144
 qs_vxc_create                       24  8.0    0.001    0.002   62.793   63.885
 xc_vxc_pw_create                    24  9.0    0.525    0.812   62.792   63.885
 xc_pw_derive                       144 11.0    0.003    0.003   43.157   45.920
 mp_alltoall_z22v                   463 15.2   14.527   39.973   14.527   39.973
 xc_rho_set_and_dset_create          24 10.0    0.525    0.904   32.948   33.658
 xc_pw_divergence                    24 10.0    0.001    0.002   28.546   29.957
 qs_rho_update_rho_low               25  5.0    0.000    0.000   23.876   23.880
 calculate_rho_elec                  25  6.0    0.138    0.141   23.876   23.880
 x_to_yz                            241 14.7    7.123    8.166   14.820   23.572
 yz_to_x                            222 13.6    4.605    5.475   11.435   21.851
 density_rs2pw                       25  7.0    0.002    0.003   19.328   19.723
 sum_up_and_integrate                24  8.0    0.603    0.693   16.884   16.895
 integrate_v_rspace                  24  9.0    0.001    0.001   16.282   16.744
 potential_pw2rs                     24 10.0    0.012    0.015   13.051   13.519
 rs_pw_transfer                     246  9.5    0.004    0.005   10.141   11.307
 xc_functional_eval                  24 11.0    0.001    0.001    9.548   10.160
 pbe_lda_eval                        24 12.0    9.547   10.160    9.547   10.160
 qs_scf_new_mos                      24  5.0    0.000    0.001    8.918    9.038
 pw_gather_p                        222 12.6    6.668    7.699    6.668    7.699
 eigensolver                         24  6.0    0.002    0.003    7.299    7.318
 mp_waitany                         990 11.4    4.378    7.176    4.378    7.176
 pw_scatter_p                       241 13.7    5.909    6.486    5.909    6.486
 cp_fm_syevd                         24  7.0    0.000    0.000    5.943    5.951
 cp_fm_redistribute_end              24  8.0    0.680    5.807    0.718    5.834
 cp_fm_syevd_base                    24  8.0    5.091    5.733    5.091    5.733
 pw_derive                          144 12.0    4.117    5.145    4.117    5.145
 mp_sum_d                           632  3.8    1.176    4.792    1.176    4.792
 grid_collocate_task_list            25  7.0    4.050    4.730    4.050    4.730
 rs_pw_transfer_RS2PW_630            26  8.9    1.033    1.252    3.026    4.077
 rs_pw_transfer_PW2RS_630            24 12.0    1.253    1.431    3.454    3.685
 pw_copy                            312 10.8    3.038    3.556    3.038    3.556
 grid_integrate_task_list            24 10.0    2.855    3.020    2.855    3.020
 scf_post_calculation_gpw             1  3.0    0.000    0.000    2.994    2.998
 write_available_results              1  4.0    0.000    0.000    2.994    2.998
 write_mo_free_results                1  5.0    0.699    0.841    2.994    2.998
 pw_to_cube                           1  6.0    1.977    2.145    2.294    2.872
 fft_wrap_pw1pw2_210                 49 11.5    0.097    0.129    2.105    2.677
 -------------------------------------------------------------------------------

 The number of warnings for this run is : 0
 
 -------------------------------------------------------------------------------
  **** **** ******  **  PROGRAM ENDED AT                 2023-07-13 12:18:51.191
 ***** ** ***  *** **   PROGRAM RAN ON                                  cccxc609
 **    ****   ******    PROGRAM RAN BY                                  felipelo
 ***** **    ** ** **   PROGRAM PROCESS ID                               1238085
  **** **  *******  **  PROGRAM STOPPED IN /dccstor/nanopore-2945/felipe/Converg
                                           encyCP2K/DZVP/1250
