 DBCSR| CPU Multiplication driver                                           XSMM (U)
 DBCSR| Multrec recursion limit                                              512 (U)
 DBCSR| Multiplication stack size                                           1000 (D)
 DBCSR| Maximum elements for images                                    UNLIMITED (U)
 DBCSR| Multiplicative factor virtual images                                   1 (U)
 DBCSR| Use multiplication densification                                       T (D)
 DBCSR| Multiplication size stacks                                             3 (U)
 DBCSR| Use memory pool for CPU allocation                                     F (U)
 DBCSR| Number of 3D layers                                               SINGLE (U)
 DBCSR| Use MPI memory allocation                                              F (U)
 DBCSR| Use RMA algorithm                                                      F (U)
 DBCSR| Use Communication thread                                               T (U)
 DBCSR| Communication thread load                                             87 (D)
 DBCSR| MPI: My process id                                                     0
 DBCSR| MPI: Number of processes                                              36
 DBCSR| OMP: Current number of threads                                         1
 DBCSR| OMP: Max number of threads                                             1
 DBCSR| Split modifier for TAS multiplication algorithm                  1.0E+00 (U)


  **** **** ******  **  PROGRAM STARTED AT               2023-07-13 12:12:12.448
 ***** ** ***  *** **   PROGRAM STARTED ON                              cccxc554
 **    ****   ******    PROGRAM STARTED BY                              felipelo
 ***** **    ** ** **   PROGRAM PROCESS ID                               3852005
  **** **  *******  **  PROGRAM STARTED IN /dccstor/nanopore-2945/felipe/Converg
                                           encyCP2K/TZV2P/2000

 CP2K| version string:                                       CP2K version 2023.1
 CP2K| source code revision number:                                  git:b888bd8
 CP2K| cp2kflags: omp libint fftw3 libxc pexsi elpa parallel scalapack cosma qui
 CP2K|            p xsmm plumed2 spglib sirius libvori libbqb libtorch libvdwxc
 CP2K| is freely available from                            https://www.cp2k.org/
 CP2K| Program compiled at                          Tue Jan 31 12:09:33 EST 2023
 CP2K| Program compiled on                                              cccxl016
 CP2K| Program compiled for                                                local
 CP2K| Data directory path         /dccstor/nanopore-2945/cp2k/cp2k-v2023.1/data
 CP2K| Input file name                                        simulation_SCF.inp

 GLOBAL| Force Environment number                                              1
 GLOBAL| Basis set file name                                        BASIS_MOLOPT
 GLOBAL| Potential file name                                      GTH_POTENTIALS
 GLOBAL| MM Potential file name                                     MM_POTENTIAL
 GLOBAL| Coordinate file name                                      __STD_INPUT__
 GLOBAL| Method name                                                        CP2K
 GLOBAL| Project name                                                   MgMOF-74
 GLOBAL| Run type                                                         ENERGY
 GLOBAL| FFT library                                                       FFTW3
 GLOBAL| Diagonalization library                                       ScaLAPACK
 GLOBAL| DGEMM library                                                      BLAS
 GLOBAL| Orthonormality check for eigenvectors                          DISABLED
 GLOBAL| Matrix multiplication library                                     COSMA
 GLOBAL| All-to-all communication in single precision                          F
 GLOBAL| FFTs using library dependent lengths                                  F
 GLOBAL| Grid backend                                                       AUTO
 GLOBAL| Global print level                                               MEDIUM
 GLOBAL| MPI I/O enabled                                                       T
 GLOBAL| Total number of message passing processes                            36
 GLOBAL| Number of threads for this process                                    1
 GLOBAL| This output is from process                                           0
 GLOBAL| Stack size for threads created by OpenMP (OMP_STACKSIZE)        default
 GLOBAL| CPU model name                          AMD EPYC 7763 64-Core Processor
 GLOBAL| CPUID                                                              1002
 GLOBAL| Compiled for CPUID                                                 1001

 *** HINT in environment.F:884 :: The compiler target flags (x86_avx) used ***
 *** to build this binary cannot exploit all extensions of this CPU model  ***
 *** (x86_avx2). Consider compiler target flags as part of FCFLAGS and     ***
 *** CFLAGS (ARCH file).                                                   ***


 MEMORY| system memory details [Kb]
 MEMORY|                        rank 0           min           max       average
 MEMORY| MemTotal           2100719344    2100719344    2100719344    2100719344
 MEMORY| MemFree            1967746560    1967746560    1967765356    1967749862
 MEMORY| Buffers                  4504          4504          4504          4504
 MEMORY| Cached               50117868      50117868      50117964      50117910
 MEMORY| Slab                  3713104       3713104       3713104       3713104
 MEMORY| SReclaimable          1120696       1120696       1120696       1120696
 MEMORY| MemLikelyFree      2018989628    2018989628    2019008520    2018992973


 *** Fundamental physical constants (SI units) ***

 *** Literature: B. J. Mohr and B. N. Taylor,
 ***             CODATA recommended values of the fundamental physical
 ***             constants: 2006, Web Version 5.1
 ***             http://physics.nist.gov/constants

 Speed of light in vacuum [m/s]                             2.99792458000000E+08
 Magnetic constant or permeability of vacuum [N/A**2]       1.25663706143592E-06
 Electric constant or permittivity of vacuum [F/m]          8.85418781762039E-12
 Planck constant (h) [J*s]                                  6.62606896000000E-34
 Planck constant (h-bar) [J*s]                              1.05457162825177E-34
 Elementary charge [C]                                      1.60217648700000E-19
 Electron mass [kg]                                         9.10938215000000E-31
 Electron g factor [ ]                                     -2.00231930436220E+00
 Proton mass [kg]                                           1.67262163700000E-27
 Fine-structure constant                                    7.29735253760000E-03
 Rydberg constant [1/m]                                     1.09737315685270E+07
 Avogadro constant [1/mol]                                  6.02214179000000E+23
 Boltzmann constant [J/K]                                   1.38065040000000E-23
 Atomic mass unit [kg]                                      1.66053878200000E-27
 Bohr radius [m]                                            5.29177208590000E-11

 *** Conversion factors ***

 [u] -> [a.u.]                                              1.82288848426455E+03
 [Angstrom] -> [Bohr] = [a.u.]                              1.88972613288564E+00
 [a.u.] = [Bohr] -> [Angstrom]                              5.29177208590000E-01
 [a.u.] -> [s]                                              2.41888432650478E-17
 [a.u.] -> [fs]                                             2.41888432650478E-02
 [a.u.] -> [J]                                              4.35974393937059E-18
 [a.u.] -> [N]                                              8.23872205491840E-08
 [a.u.] -> [K]                                              3.15774647902944E+05
 [a.u.] -> [kJ/mol]                                         2.62549961709828E+03
 [a.u.] -> [kcal/mol]                                       6.27509468713739E+02
 [a.u.] -> [Pa]                                             2.94210107994716E+13
 [a.u.] -> [bar]                                            2.94210107994716E+08
 [a.u.] -> [atm]                                            2.90362800883016E+08
 [a.u.] -> [eV]                                             2.72113838565563E+01
 [a.u.] -> [Hz]                                             6.57968392072181E+15
 [a.u.] -> [1/cm] (wave numbers)                            2.19474631370540E+05
 [a.u./Bohr**2] -> [1/cm]                                   5.14048714338585E+03
 

 CELL_TOP| Volume [angstrom^3]:                                      4106.673357
 CELL_TOP| Vector a [angstrom    26.136     0.000     0.000   |a| =    26.135900
 CELL_TOP| Vector b [angstrom   -13.068    22.634     0.000   |b| =    26.135900
 CELL_TOP| Vector c [angstrom     0.000     0.000     6.942   |c| =     6.942000
 CELL_TOP| Angle (b,c), alpha [degree]:                                90.000000
 CELL_TOP| Angle (a,c), beta  [degree]:                                90.000000
 CELL_TOP| Angle (a,b), gamma [degree]:                               120.000000
 CELL_TOP| Numerically orthorhombic:                                          NO
 CELL_TOP| Periodicity                                                       XYZ

 GENERATE|  Preliminary Number of Bonds generated:                             0
 GENERATE|  Achieved consistency in connectivity generation.

 CELL| Volume [angstrom^3]:                                          4106.673357
 CELL| Vector a [angstrom]:      26.136     0.000     0.000   |a| =    26.135900
 CELL| Vector b [angstrom]:     -13.068    22.634     0.000   |b| =    26.135900
 CELL| Vector c [angstrom]:       0.000     0.000     6.942   |c| =     6.942000
 CELL| Angle (b,c), alpha [degree]:                                    90.000000
 CELL| Angle (a,c), beta  [degree]:                                    90.000000
 CELL| Angle (a,b), gamma [degree]:                                   120.000000
 CELL| Numerically orthorhombic:                                              NO
 CELL| Periodicity                                                           XYZ

 CELL_REF| Volume [angstrom^3]:                                      4106.673357
 CELL_REF| Vector a [angstrom    26.136     0.000     0.000   |a| =    26.135900
 CELL_REF| Vector b [angstrom   -13.068    22.634     0.000   |b| =    26.135900
 CELL_REF| Vector c [angstrom     0.000     0.000     6.942   |c| =     6.942000
 CELL_REF| Angle (b,c), alpha [degree]:                                90.000000
 CELL_REF| Angle (a,c), beta  [degree]:                                90.000000
 CELL_REF| Angle (a,b), gamma [degree]:                               120.000000
 CELL_REF| Numerically orthorhombic:                                          NO
 CELL_REF| Periodicity                                                       XYZ

 *******************************************************************************
 *******************************************************************************
 **                                                                           **
 **     #####                         ##              ##                      **
 **    ##   ##            ##          ##              ##                      **
 **   ##     ##                       ##            ######                    **
 **   ##     ##  ##   ##  ##   #####  ##  ##   ####   ##    #####    #####    **
 **   ##     ##  ##   ##  ##  ##      ## ##   ##      ##   ##   ##  ##   ##   **
 **   ##  ## ##  ##   ##  ##  ##      ####     ###    ##   ######   ######    **
 **    ##  ###   ##   ##  ##  ##      ## ##      ##   ##   ##       ##        **
 **     #######   #####   ##   #####  ##  ##  ####    ##    #####   ##        **
 **           ##                                                    ##        **
 **                                                                           **
 **                                                ... make the atoms dance   **
 **                                                                           **
 **            Copyright (C) by CP2K developers group (2000-2022)             **
 **                      J. Chem. Phys. 152, 194103 (2020)                    **
 **                                                                           **
 *******************************************************************************

 DFT| Spin restricted Kohn-Sham (RKS) calculation                            RKS
 DFT| Multiplicity                                                             1
 DFT| Number of spin states                                                    1
 DFT| Charge                                                                   0
 DFT| Self-interaction correction (SIC)                                       NO
 DFT| Cutoffs: density                                              1.000000E-10
 DFT|          gradient                                             1.000000E-10
 DFT|          tau                                                  1.000000E-10
 DFT|          cutoff_smoothing_range                               0.000000E+00
 DFT| XC density smoothing                                                  NONE
 DFT| XC derivatives                                                          PW

 FUNCTIONAL| PBE:
 FUNCTIONAL| J.P.Perdew, K.Burke, M.Ernzerhof, Phys. Rev. Letter, vol. 77, n 18,
 FUNCTIONAL|  pp. 3865-3868, (1996){spin unpolarized}                           


 QS| Method:                                                                 GPW
 QS| Density plane wave grid type                        NON-SPHERICAL FULLSPACE
 QS| Number of grid levels:                                                    5
 QS| Density cutoff [a.u.]:                                               1000.0
 QS| Multi grid cutoff [a.u.]: 1) grid level                              1000.0
 QS|                           2) grid level                               333.3
 QS|                           3) grid level                               111.1
 QS|                           4) grid level                                37.0
 QS|                           5) grid level                                12.3
 QS| Grid level progression factor:                                          3.0
 QS| Relative density cutoff [a.u.]:                                        30.0
 QS| Interaction thresholds: eps_pgf_orb:                                3.2E-04
 QS|                         eps_filter_matrix:                          0.0E+00
 QS|                         eps_core_charge:                            1.0E-09
 QS|                         eps_rho_gspace:                             1.0E-07
 QS|                         eps_rho_rspace:                             1.0E-07
 QS|                         eps_gvg_rspace:                             3.2E-04
 QS|                         eps_ppl:                                    1.0E-02
 QS|                         eps_ppnl:                                   3.2E-06


 ATOMIC KIND INFORMATION

  1. Atomic kind: Mg                                    Number of atoms:      18

     Orbital Basis Set                                  TZV2P-MOLOPT-PBE-GTH-q10

       Number of orbital shell sets:                                           1
       Number of orbital shells:                                               8
       Number of primitive Cartesian functions:                                7
       Number of Cartesian basis functions:                                   19
       Number of spherical basis functions:                                   18
       Norm type:                                                              2

       Normalised Cartesian orbitals:

                        Set   Shell   Orbital            Exponent    Coefficient

                          1       1    2s               30.665113       0.451447
                                                        12.275859       0.726075
                                                         4.272010      -0.526256
                                                         1.495769      -0.610303
                                                         0.537465      -0.133706
                                                         0.150468       0.056297
                                                         0.053463       0.038886

                          1       2    3s               30.665113       0.334492
                                                        12.275859       0.526478
                                                         4.272010      -0.362593
                                                         1.495769      -0.325293
                                                         0.537465      -0.035503
                                                         0.150468      -0.067140
                                                         0.053463      -0.027721

                          1       3    4s               30.665113      -0.099998
                                                        12.275859      -0.274466
                                                         4.272010       0.175263
                                                         1.495769      -0.432909
                                                         0.537465       0.026355
                                                         0.150468       0.323066
                                                         0.053463      -0.137249

                          1       4    5s               30.665113      -0.186629
                                                        12.275859      -0.607745
                                                         4.272010       0.356895
                                                         1.495769      -0.575877
                                                         0.537465       0.591349
                                                         0.150468      -0.004891
                                                         0.053463       0.014396

                          1       5    3px              30.665113       3.733874
                                                        12.275859       5.044435
                                                         4.272010       3.057335
                                                         1.495769       0.909074
                                                         0.537465       0.129687
                                                         0.150468       0.022899
                                                         0.053463       0.004096
                          1       5    3py              30.665113       3.733874
                                                        12.275859       5.044435
                                                         4.272010       3.057335
                                                         1.495769       0.909074
                                                         0.537465       0.129687
                                                         0.150468       0.022899
                                                         0.053463       0.004096
                          1       5    3pz              30.665113       3.733874
                                                        12.275859       5.044435
                                                         4.272010       3.057335
                                                         1.495769       0.909074
                                                         0.537465       0.129687
                                                         0.150468       0.022899
                                                         0.053463       0.004096

                          1       6    4px              30.665113       1.755132
                                                        12.275859       2.473459
                                                         4.272010       1.516219
                                                         1.495769       0.501872
                                                         0.537465      -0.010970
                                                         0.150468      -0.080635
                                                         0.053463      -0.015741
                          1       6    4py              30.665113       1.755132
                                                        12.275859       2.473459
                                                         4.272010       1.516219
                                                         1.495769       0.501872
                                                         0.537465      -0.010970
                                                         0.150468      -0.080635
                                                         0.053463      -0.015741
                          1       6    4pz              30.665113       1.755132
                                                        12.275859       2.473459
                                                         4.272010       1.516219
                                                         1.495769       0.501872
                                                         0.537465      -0.010970
                                                         0.150468      -0.080635
                                                         0.053463      -0.015741

                          1       7    5px              30.665113      -0.708806
                                                        12.275859      -1.489042
                                                         4.272010      -0.885332
                                                         1.495769      -0.583098
                                                         0.537465       0.505452
                                                         0.150468       0.075488
                                                         0.053463      -0.036487
                          1       7    5py              30.665113      -0.708806
                                                        12.275859      -1.489042
                                                         4.272010      -0.885332
                                                         1.495769      -0.583098
                                                         0.537465       0.505452
                                                         0.150468       0.075488
                                                         0.053463      -0.036487
                          1       7    5pz              30.665113      -0.708806
                                                        12.275859      -1.489042
                                                         4.272010      -0.885332
                                                         1.495769      -0.583098
                                                         0.537465       0.505452
                                                         0.150468       0.075488
                                                         0.053463      -0.036487

                          1       8    4dx2             30.665113      14.879881
                                                        12.275859      -1.842904
                                                         4.272010       0.638933
                                                         1.495769       0.185250
                                                         0.537465       0.191459
                                                         0.150468       0.039970
                                                         0.053463       0.001356
                          1       8    4dxy             30.665113      25.772709
                                                        12.275859      -3.192003
                                                         4.272010       1.106664
                                                         1.495769       0.320863
                                                         0.537465       0.331617
                                                         0.150468       0.069229
                                                         0.053463       0.002348
                          1       8    4dxz             30.665113      25.772709
                                                        12.275859      -3.192003
                                                         4.272010       1.106664
                                                         1.495769       0.320863
                                                         0.537465       0.331617
                                                         0.150468       0.069229
                                                         0.053463       0.002348
                          1       8    4dy2             30.665113      14.879881
                                                        12.275859      -1.842904
                                                         4.272010       0.638933
                                                         1.495769       0.185250
                                                         0.537465       0.191459
                                                         0.150468       0.039970
                                                         0.053463       0.001356
                          1       8    4dyz             30.665113      25.772709
                                                        12.275859      -3.192003
                                                         4.272010       1.106664
                                                         1.495769       0.320863
                                                         0.537465       0.331617
                                                         0.150468       0.069229
                                                         0.053463       0.002348
                          1       8    4dz2             30.665113      14.879881
                                                        12.275859      -1.842904
                                                         4.272010       0.638933
                                                         1.495769       0.185250
                                                         0.537465       0.191459
                                                         0.150468       0.039970
                                                         0.053463       0.001356

       Atomic covalent radius [Angstrom]:                                  1.360

       Atomic van der Waals radius [Angstrom]:                             1.730

     GTH Potential information for                                   GTH-PBE-q10

       Description:                       Goedecker-Teter-Hutter pseudopotential
                                           Goedecker et al., PRB 54, 1703 (1996)
                                          Hartwigsen et al., PRB 58, 3641 (1998)
                                                      Krack, TCA 114, 145 (2005)

       Gaussian exponent of the core charge distribution:              13.456923
       Electronic configuration (s p d ...):                               4   6

       Parameters of the local part of the GTH pseudopotential:

                          rloc        C1          C2          C3          C4
                        0.192758  -20.575391    3.040167

       Parameters of the non-local part of the GTH pseudopotential:

                   l      r(l)      h(i,j,l)

                   0    0.141407   41.047292
                   1    0.102932   -9.985626

  2. Atomic kind: H                                     Number of atoms:      18

     Orbital Basis Set                                   TZV2P-MOLOPT-PBE-GTH-q1

       Number of orbital shell sets:                                           1
       Number of orbital shells:                                               6
       Number of primitive Cartesian functions:                                5
       Number of Cartesian basis functions:                                   15
       Number of spherical basis functions:                                   14
       Norm type:                                                              2

       Normalised Cartesian orbitals:

                        Set   Shell   Orbital            Exponent    Coefficient

                          1       1    2s                9.586642       0.069481
                                                         2.202360       0.112147
                                                         0.604094       0.130550
                                                         0.146498       0.088477
                                                         0.139526       0.035929

                          1       2    3s                9.586642      -0.087313
                                                         2.202360      -0.117928
                                                         0.604094      -0.099372
                                                         0.146498      -0.105375
                                                         0.139526       0.287433

                          1       3    4s                9.586642       0.882480
                                                         2.202360       0.096105
                                                         0.604094      -0.739894
                                                         0.146498       0.120904
                                                         0.139526       0.013904

                          1       4    3px               9.586642      -2.186125
                                                         2.202360       1.112625
                                                         0.604094       0.330981
                                                         0.146498       0.087385
                                                         0.139526      -0.016905
                          1       4    3py               9.586642      -2.186125
                                                         2.202360       1.112625
                                                         0.604094       0.330981
                                                         0.146498       0.087385
                                                         0.139526      -0.016905
                          1       4    3pz               9.586642      -2.186125
                                                         2.202360       1.112625
                                                         0.604094       0.330981
                                                         0.146498       0.087385
                                                         0.139526      -0.016905

                          1       5    4px               9.586642       1.866908
                                                         2.202360       0.174551
                                                         0.604094       0.060190
                                                         0.146498       0.014182
                                                         0.139526       0.100545
                          1       5    4py               9.586642       1.866908
                                                         2.202360       0.174551
                                                         0.604094       0.060190
                                                         0.146498       0.014182
                                                         0.139526       0.100545
                          1       5    4pz               9.586642       1.866908
                                                         2.202360       0.174551
                                                         0.604094       0.060190
                                                         0.146498       0.014182
                                                         0.139526       0.100545

                          1       6    4dx2              9.586642       0.111501
                                                         2.202360      -0.020603
                                                         0.604094      -0.012612
                                                         0.146498      -0.000171
                                                         0.139526       0.052995
                          1       6    4dxy              9.586642       0.193125
                                                         2.202360      -0.035686
                                                         0.604094      -0.021844
                                                         0.146498      -0.000296
                                                         0.139526       0.091790
                          1       6    4dxz              9.586642       0.193125
                                                         2.202360      -0.035686
                                                         0.604094      -0.021844
                                                         0.146498      -0.000296
                                                         0.139526       0.091790
                          1       6    4dy2              9.586642       0.111501
                                                         2.202360      -0.020603
                                                         0.604094      -0.012612
                                                         0.146498      -0.000171
                                                         0.139526       0.052995
                          1       6    4dyz              9.586642       0.193125
                                                         2.202360      -0.035686
                                                         0.604094      -0.021844
                                                         0.146498      -0.000296
                                                         0.139526       0.091790
                          1       6    4dz2              9.586642       0.111501
                                                         2.202360      -0.020603
                                                         0.604094      -0.012612
                                                         0.146498      -0.000171
                                                         0.139526       0.052995

       Atomic covalent radius [Angstrom]:                                  0.320

       Atomic van der Waals radius [Angstrom]:                             1.090

     GTH Potential information for                                    GTH-PBE-q1

       Description:                       Goedecker-Teter-Hutter pseudopotential
                                           Goedecker et al., PRB 54, 1703 (1996)
                                          Hartwigsen et al., PRB 58, 3641 (1998)
                                                      Krack, TCA 114, 145 (2005)

       Gaussian exponent of the core charge distribution:              12.500000
       Electronic configuration (s p d ...):                                   1

       Parameters of the local part of the GTH pseudopotential:

                          rloc        C1          C2          C3          C4
                        0.200000   -4.178900    0.724463

  3. Atomic kind: C                                     Number of atoms:      72

     Orbital Basis Set                                   TZV2P-MOLOPT-PBE-GTH-q4

       Number of orbital shell sets:                                           1
       Number of orbital shells:                                               9
       Number of primitive Cartesian functions:                                5
       Number of Cartesian basis functions:                                   34
       Number of spherical basis functions:                                   29
       Norm type:                                                              2

       Normalised Cartesian orbitals:

                        Set   Shell   Orbital            Exponent    Coefficient

                          1       1    2s                5.599010      -0.388516
                                                         2.008517      -0.222960
                                                         0.755557       0.256069
                                                         0.292158       0.177682
                                                         0.105328       0.019401

                          1       2    3s                5.599010       0.700337
                                                         2.008517       0.202467
                                                         0.755557      -0.073086
                                                         0.292158      -0.004274
                                                         0.105328       0.122810

                          1       3    4s                5.599010      -2.176345
                                                         2.008517      -0.220775
                                                         0.755557       0.109238
                                                         0.292158      -0.129517
                                                         0.105328       0.038801

                          1       4    3px               5.599010      -0.769001
                                                         2.008517      -0.634471
                                                         0.755557      -0.400220
                                                         0.292158      -0.124705
                                                         0.105328      -0.014325
                          1       4    3py               5.599010      -0.769001
                                                         2.008517      -0.634471
                                                         0.755557      -0.400220
                                                         0.292158      -0.124705
                                                         0.105328      -0.014325
                          1       4    3pz               5.599010      -0.769001
                                                         2.008517      -0.634471
                                                         0.755557      -0.400220
                                                         0.292158      -0.124705
                                                         0.105328      -0.014325

                          1       5    4px               5.599010       0.895802
                                                         2.008517       0.817480
                                                         0.755557       0.269326
                                                         0.292158       0.009009
                                                         0.105328      -0.085852
                          1       5    4py               5.599010       0.895802
                                                         2.008517       0.817480
                                                         0.755557       0.269326
                                                         0.292158       0.009009
                                                         0.105328      -0.085852
                          1       5    4pz               5.599010       0.895802
                                                         2.008517       0.817480
                                                         0.755557       0.269326
                                                         0.292158       0.009009
                                                         0.105328      -0.085852

                          1       6    5px               5.599010       1.029767
                                                         2.008517       2.903527
                                                         0.755557       0.336187
                                                         0.292158      -0.258025
                                                         0.105328       0.023472
                          1       6    5py               5.599010       1.029767
                                                         2.008517       2.903527
                                                         0.755557       0.336187
                                                         0.292158      -0.258025
                                                         0.105328       0.023472
                          1       6    5pz               5.599010       1.029767
                                                         2.008517       2.903527
                                                         0.755557       0.336187
                                                         0.292158      -0.258025
                                                         0.105328       0.023472

                          1       7    4dx2              5.599010      -4.629244
                                                         2.008517       1.670071
                                                         0.755557       0.309368
                                                         0.292158       0.124707
                                                         0.105328      -0.001260
                          1       7    4dxy              5.599010      -8.018085
                                                         2.008517       2.892648
                                                         0.755557       0.535841
                                                         0.292158       0.215998
                                                         0.105328      -0.002182
                          1       7    4dxz              5.599010      -8.018085
                                                         2.008517       2.892648
                                                         0.755557       0.535841
                                                         0.292158       0.215998
                                                         0.105328      -0.002182
                          1       7    4dy2              5.599010      -4.629244
                                                         2.008517       1.670071
                                                         0.755557       0.309368
                                                         0.292158       0.124707
                                                         0.105328      -0.001260
                          1       7    4dyz              5.599010      -8.018085
                                                         2.008517       2.892648
                                                         0.755557       0.535841
                                                         0.292158       0.215998
                                                         0.105328      -0.002182
                          1       7    4dz2              5.599010      -4.629244
                                                         2.008517       1.670071
                                                         0.755557       0.309368
                                                         0.292158       0.124707
                                                         0.105328      -0.001260

                          1       8    5dx2              5.599010      -0.765539
                                                         2.008517       0.044731
                                                         0.755557       0.033894
                                                         0.292158       0.006499
                                                         0.105328       0.031042
                          1       8    5dxy              5.599010      -1.325952
                                                         2.008517       0.077477
                                                         0.755557       0.058707
                                                         0.292158       0.011257
                                                         0.105328       0.053766
                          1       8    5dxz              5.599010      -1.325952
                                                         2.008517       0.077477
                                                         0.755557       0.058707
                                                         0.292158       0.011257
                                                         0.105328       0.053766
                          1       8    5dy2              5.599010      -0.765539
                                                         2.008517       0.044731
                                                         0.755557       0.033894
                                                         0.292158       0.006499
                                                         0.105328       0.031042
                          1       8    5dyz              5.599010      -1.325952
                                                         2.008517       0.077477
                                                         0.755557       0.058707
                                                         0.292158       0.011257
                                                         0.105328       0.053766
                          1       8    5dz2              5.599010      -0.765539
                                                         2.008517       0.044731
                                                         0.755557       0.033894
                                                         0.292158       0.006499
                                                         0.105328       0.031042

                          1       9    5fx3              5.599010      -0.150044
                                                         2.008517      -0.042629
                                                         0.755557       0.009866
                                                         0.292158       0.091648
                                                         0.105328       0.000020
                          1       9    5fx2y             5.599010      -0.335509
                                                         2.008517      -0.095321
                                                         0.755557       0.022061
                                                         0.292158       0.204931
                                                         0.105328       0.000045
                          1       9    5fx2z             5.599010      -0.335509
                                                         2.008517      -0.095321
                                                         0.755557       0.022061
                                                         0.292158       0.204931
                                                         0.105328       0.000045
                          1       9    5fxy2             5.599010      -0.335509
                                                         2.008517      -0.095321
                                                         0.755557       0.022061
                                                         0.292158       0.204931
                                                         0.105328       0.000045
                          1       9    5fxyz             5.599010      -0.581119
                                                         2.008517      -0.165100
                                                         0.755557       0.038210
                                                         0.292158       0.354951
                                                         0.105328       0.000078
                          1       9    5fxz2             5.599010      -0.335509
                                                         2.008517      -0.095321
                                                         0.755557       0.022061
                                                         0.292158       0.204931
                                                         0.105328       0.000045
                          1       9    5fy3              5.599010      -0.150044
                                                         2.008517      -0.042629
                                                         0.755557       0.009866
                                                         0.292158       0.091648
                                                         0.105328       0.000020
                          1       9    5fy2z             5.599010      -0.335509
                                                         2.008517      -0.095321
                                                         0.755557       0.022061
                                                         0.292158       0.204931
                                                         0.105328       0.000045
                          1       9    5fyz2             5.599010      -0.335509
                                                         2.008517      -0.095321
                                                         0.755557       0.022061
                                                         0.292158       0.204931
                                                         0.105328       0.000045
                          1       9    5fz3              5.599010      -0.150044
                                                         2.008517      -0.042629
                                                         0.755557       0.009866
                                                         0.292158       0.091648
                                                         0.105328       0.000020

       Atomic covalent radius [Angstrom]:                                  0.770

       Atomic van der Waals radius [Angstrom]:                             1.700

     GTH Potential information for                                    GTH-PBE-q4

       Description:                       Goedecker-Teter-Hutter pseudopotential
                                           Goedecker et al., PRB 54, 1703 (1996)
                                          Hartwigsen et al., PRB 58, 3641 (1998)
                                                      Krack, TCA 114, 145 (2005)

       Gaussian exponent of the core charge distribution:               4.364419
       Electronic configuration (s p d ...):                               2   2

       Parameters of the local part of the GTH pseudopotential:

                          rloc        C1          C2          C3          C4
                        0.338471   -8.803674    1.339211

       Parameters of the non-local part of the GTH pseudopotential:

                   l      r(l)      h(i,j,l)

                   0    0.302576    9.622487
                   1    0.291507

  4. Atomic kind: O                                     Number of atoms:      54

     Orbital Basis Set                                   TZV2P-MOLOPT-PBE-GTH-q6

       Number of orbital shell sets:                                           1
       Number of orbital shells:                                               9
       Number of primitive Cartesian functions:                                5
       Number of Cartesian basis functions:                                   34
       Number of spherical basis functions:                                   29
       Norm type:                                                              2

       Normalised Cartesian orbitals:

                        Set   Shell   Orbital            Exponent    Coefficient

                          1       1    2s               10.277042      -0.485504
                                                         3.564053      -0.220015
                                                         1.313636       0.373321
                                                         0.488903       0.264765
                                                         0.155332       0.020043

                          1       2    3s               10.277042       0.224066
                                                         3.564053       0.080746
                                                         1.313636      -0.123482
                                                         0.488903      -0.035459
                                                         0.155332       0.195554

                          1       3    4s               10.277042      -3.846583
                                                         3.564053      -0.604002
                                                         1.313636       0.878850
                                                         0.488903      -0.388670
                                                         0.155332       0.020403

                          1       4    3px              10.277042      -1.528218
                                                         3.564053      -1.277699
                                                         1.313636      -0.654740
                                                         0.488903      -0.229926
                                                         0.155332      -0.043447
                          1       4    3py              10.277042      -1.528218
                                                         3.564053      -1.277699
                                                         1.313636      -0.654740
                                                         0.488903      -0.229926
                                                         0.155332      -0.043447
                          1       4    3pz              10.277042      -1.528218
                                                         3.564053      -1.277699
                                                         1.313636      -0.654740
                                                         0.488903      -0.229926
                                                         0.155332      -0.043447

                          1       5    4px              10.277042       2.036465
                                                         3.564053       1.678955
                                                         1.313636       0.821025
                                                         0.488903       0.173956
                                                         0.155332      -0.133459
                          1       5    4py              10.277042       2.036465
                                                         3.564053       1.678955
                                                         1.313636       0.821025
                                                         0.488903       0.173956
                                                         0.155332      -0.133459
                          1       5    4pz              10.277042       2.036465
                                                         3.564053       1.678955
                                                         1.313636       0.821025
                                                         0.488903       0.173956
                                                         0.155332      -0.133459

                          1       6    5px              10.277042       4.160760
                                                         3.564053       3.839534
                                                         1.313636       1.365137
                                                         0.488903      -0.557232
                                                         0.155332       0.019989
                          1       6    5py              10.277042       4.160760
                                                         3.564053       3.839534
                                                         1.313636       1.365137
                                                         0.488903      -0.557232
                                                         0.155332       0.019989
                          1       6    5pz              10.277042       4.160760
                                                         3.564053       3.839534
                                                         1.313636       1.365137
                                                         0.488903      -0.557232
                                                         0.155332       0.019989

                          1       7    4dx2             10.277042      -5.653729
                                                         3.564053       2.384130
                                                         1.313636       0.763128
                                                         0.488903       0.368121
                                                         0.155332      -0.007951
                          1       7    4dxy             10.277042      -9.792547
                                                         3.564053       4.129435
                                                         1.313636       1.321776
                                                         0.488903       0.637605
                                                         0.155332      -0.013772
                          1       7    4dxz             10.277042      -9.792547
                                                         3.564053       4.129435
                                                         1.313636       1.321776
                                                         0.488903       0.637605
                                                         0.155332      -0.013772
                          1       7    4dy2             10.277042      -5.653729
                                                         3.564053       2.384130
                                                         1.313636       0.763128
                                                         0.488903       0.368121
                                                         0.155332      -0.007951
                          1       7    4dyz             10.277042      -9.792547
                                                         3.564053       4.129435
                                                         1.313636       1.321776
                                                         0.488903       0.637605
                                                         0.155332      -0.013772
                          1       7    4dz2             10.277042      -5.653729
                                                         3.564053       2.384130
                                                         1.313636       0.763128
                                                         0.488903       0.368121
                                                         0.155332      -0.007951

                          1       8    5dx2             10.277042      -1.240143
                                                         3.564053       0.370203
                                                         1.313636       0.144297
                                                         0.488903       0.056503
                                                         0.155332       0.057456
                          1       8    5dxy             10.277042      -2.147990
                                                         3.564053       0.641211
                                                         1.313636       0.249929
                                                         0.488903       0.097865
                                                         0.155332       0.099516
                          1       8    5dxz             10.277042      -2.147990
                                                         3.564053       0.641211
                                                         1.313636       0.249929
                                                         0.488903       0.097865
                                                         0.155332       0.099516
                          1       8    5dy2             10.277042      -1.240143
                                                         3.564053       0.370203
                                                         1.313636       0.144297
                                                         0.488903       0.056503
                                                         0.155332       0.057456
                          1       8    5dyz             10.277042      -2.147990
                                                         3.564053       0.641211
                                                         1.313636       0.249929
                                                         0.488903       0.097865
                                                         0.155332       0.099516
                          1       8    5dz2             10.277042      -1.240143
                                                         3.564053       0.370203
                                                         1.313636       0.144297
                                                         0.488903       0.056503
                                                         0.155332       0.057456

                          1       9    5fx3             10.277042      -6.690350
                                                         3.564053       0.340627
                                                         1.313636       0.043047
                                                         0.488903       0.291962
                                                         0.155332      -0.000154
                          1       9    5fx2y            10.277042     -14.960077
                                                         3.564053       0.761664
                                                         1.313636       0.096256
                                                         0.488903       0.652848
                                                         0.155332      -0.000345
                          1       9    5fx2z            10.277042     -14.960077
                                                         3.564053       0.761664
                                                         1.313636       0.096256
                                                         0.488903       0.652848
                                                         0.155332      -0.000345
                          1       9    5fxy2            10.277042     -14.960077
                                                         3.564053       0.761664
                                                         1.313636       0.096256
                                                         0.488903       0.652848
                                                         0.155332      -0.000345
                          1       9    5fxyz            10.277042     -25.911613
                                                         3.564053       1.319241
                                                         1.313636       0.166721
                                                         0.488903       1.130766
                                                         0.155332      -0.000597
                          1       9    5fxz2            10.277042     -14.960077
                                                         3.564053       0.761664
                                                         1.313636       0.096256
                                                         0.488903       0.652848
                                                         0.155332      -0.000345
                          1       9    5fy3             10.277042      -6.690350
                                                         3.564053       0.340627
                                                         1.313636       0.043047
                                                         0.488903       0.291962
                                                         0.155332      -0.000154
                          1       9    5fy2z            10.277042     -14.960077
                                                         3.564053       0.761664
                                                         1.313636       0.096256
                                                         0.488903       0.652848
                                                         0.155332      -0.000345
                          1       9    5fyz2            10.277042     -14.960077
                                                         3.564053       0.761664
                                                         1.313636       0.096256
                                                         0.488903       0.652848
                                                         0.155332      -0.000345
                          1       9    5fz3             10.277042      -6.690350
                                                         3.564053       0.340627
                                                         1.313636       0.043047
                                                         0.488903       0.291962
                                                         0.155332      -0.000154

       Atomic covalent radius [Angstrom]:                                  0.730

       Atomic van der Waals radius [Angstrom]:                             1.520

     GTH Potential information for                                    GTH-PBE-q6

       Description:                       Goedecker-Teter-Hutter pseudopotential
                                           Goedecker et al., PRB 54, 1703 (1996)
                                          Hartwigsen et al., PRB 58, 3641 (1998)
                                                      Krack, TCA 114, 145 (2005)

       Gaussian exponent of the core charge distribution:               8.360253
       Electronic configuration (s p d ...):                               2   4

       Parameters of the local part of the GTH pseudopotential:

                          rloc        C1          C2          C3          C4
                        0.244554  -16.667215    2.487311

       Parameters of the non-local part of the GTH pseudopotential:

                   l      r(l)      h(i,j,l)

                   0    0.220956   18.337458
                   1    0.211332


 MOLECULE KIND INFORMATION


 All atoms are their own molecule, skipping detailed information


 TOTAL NUMBERS AND MAXIMUM NUMBERS

  Total number of            - Atomic kinds:                                   4
                             - Atoms:                                        162
                             - Shell sets:                                   162
                             - Shells:                                      1386
                             - Primitive Cartesian functions:                846
                             - Cartesian basis functions:                   4896
                             - Spherical basis functions:                   4230

  Maximum angular momentum of- Orbital basis functions:                        3
                             - Local part of the GTH pseudopotential:          2
                             - Non-local part of the GTH pseudopotential:      1


 MODULE QUICKSTEP: ATOMIC COORDINATES IN ANGSTROM

   Atom Kind Element         X             Y             Z       Z(eff)     Mass
      1    1 Mg   12     -4.269691     21.648627      3.275860  10.0000  24.3050
      2    1 Mg   12      9.522471      0.567602      0.961863  10.0000  24.3050
      3    1 Mg   12      7.815170      0.418124      5.589858  10.0000  24.3050
      4    1 Mg   12      4.269704      8.530503      5.980137  10.0000  24.3050
      5    1 Mg   12      3.545452      6.977198      1.352142  10.0000  24.3050
      6    1 Mg   12      5.252793      7.126652      3.666140  10.0000  24.3050
      7    1 Mg   12     21.866222      6.559051      5.589858  10.0000  24.3050
      8    1 Mg   12     -3.545466      8.112379      3.275860  10.0000  24.3050
      9    1 Mg   12     20.883094      7.962924      0.961863  10.0000  24.3050
     10    1 Mg   12     -8.798272     16.075303      1.352142  10.0000  24.3050
     11    1 Mg   12     16.613416     14.521975      3.666140  10.0000  24.3050
     12    1 Mg   12     -7.815144     14.671429      5.980137  10.0000  24.3050
     13    1 Mg   12      8.798246     14.103850      0.961863  10.0000  24.3050
     14    1 Mg   12      9.522498     15.657155      5.589858  10.0000  24.3050
     15    1 Mg   12      7.815157     15.507701      3.275860  10.0000  24.3050
     16    1 Mg   12     17.337641      0.985726      3.666140  10.0000  24.3050
     17    1 Mg   12      3.545479     22.066752      5.980137  10.0000  24.3050
     18    1 Mg   12      5.252780     22.216229      1.352142  10.0000  24.3050
     19    2 H     1     -0.304758     22.044208      1.012470   1.0000   1.0079
     20    2 H     1      7.197448      3.803545      5.640465   1.0000   1.0079
     21    2 H     1     -6.892690     19.420954      3.326468   1.0000   1.0079
     22    2 H     1      0.304732      8.134945      1.301535   1.0000   1.0079
     23    2 H     1      5.870515      3.741232      3.615532   1.0000   1.0079
     24    2 H     1      6.892703     10.758176      5.929530   1.0000   1.0079
     25    2 H     1     -0.304745      6.954631      3.326468   1.0000   1.0079
     26    2 H     1     -5.870528     11.348344      1.012470   1.0000   1.0079
     27    2 H     1     19.243223      4.331378      5.640465   1.0000   1.0079
     28    2 H     1     13.372695     15.679722      3.615532   1.0000   1.0079
     29    2 H     1     18.938478     11.286009      5.929530   1.0000   1.0079
     30    2 H     1     -6.175273     18.302976      1.301535   1.0000   1.0079
     31    2 H     1     12.763218     14.499408      5.640465   1.0000   1.0079
     32    2 H     1      7.197435     18.893121      3.326468   1.0000   1.0079
     33    2 H     1      6.175247     11.876177      1.012470   1.0000   1.0079
     34    2 H     1     13.372708      0.590145      5.929530   1.0000   1.0079
     35    2 H     1      5.870502     18.830809      1.301535   1.0000   1.0079
     36    2 H     1     19.960640      3.213399      3.615532   1.0000   1.0079
     37    3 C     6     10.814134      0.321476      5.278440   4.0000  12.0107
     38    3 C     6      7.382477      1.659777      2.964442   4.0000  12.0107
     39    3 C     6     -5.128661     20.653100      0.650445   4.0000  12.0107
     40    3 C     6      2.253829      7.223301      3.977558   4.0000  12.0107
     41    3 C     6      5.685486      5.885000      6.291555   4.0000  12.0107
     42    3 C     6      5.128635      9.526052      1.663560   4.0000  12.0107
     43    3 C     6     11.940330      0.122293      4.332940   4.0000  12.0107
     44    3 C     6      6.991876      2.734683      2.018942   4.0000  12.0107
     45    3 C     6     -5.864256     19.777377      6.646944   4.0000  12.0107
     46    3 C     6      1.127633      7.422483      4.923058   4.0000  12.0107
     47    3 C     6      6.076087      4.810094      0.295056   4.0000  12.0107
     48    3 C     6      5.864229     10.401776      2.609060   4.0000  12.0107
     49    3 C     6     -1.330330     22.406810      2.926518   4.0000  12.0107
     50    3 C     6      7.396211      2.734071      0.612513   4.0000  12.0107
     51    3 C     6     -6.065881     20.127825      5.240516   4.0000  12.0107
     52    3 C     6      1.330304      7.772343      6.329487   4.0000  12.0107
     53    3 C     6      5.671752      4.810705      1.701484   4.0000  12.0107
     54    3 C     6      6.065894     10.051305      4.015482   4.0000  12.0107
     55    3 C     6     -0.181527     22.303371      2.098199   4.0000  12.0107
     56    3 C     6      6.911390      3.780684      6.726194   4.0000  12.0107
     57    3 C     6     -6.729864     19.184652      4.412196   4.0000  12.0107
     58    3 C     6      0.181501      7.875782      0.215806   4.0000  12.0107
     59    3 C     6      6.156573      3.764093      2.529804   4.0000  12.0107
     60    3 C     6      6.729877     10.994479      4.843801   4.0000  12.0107
     61    3 C     6     -2.253842      7.866275      0.650445   4.0000  12.0107
     62    3 C     6     20.450440      9.204554      5.278440   4.0000  12.0107
     63    3 C     6     21.007252      5.563524      2.964442   4.0000  12.0107
     64    3 C     6     15.321792     14.768078      6.291555   4.0000  12.0107
     65    3 C     6     -7.382490     13.429799      1.663560   4.0000  12.0107
     66    3 C     6     -7.939302     17.070829      3.977558   4.0000  12.0107
     67    3 C     6     -1.127646      7.667093      6.646944   4.0000  12.0107
     68    3 C     6     20.059839     10.279459      4.332940   4.0000  12.0107
     69    3 C     6     20.271657      4.687801      2.018942   4.0000  12.0107
     70    3 C     6     14.195596     14.967260      0.295056   4.0000  12.0107
     71    3 C     6     -6.991889     12.354894      2.609060   4.0000  12.0107
     72    3 C     6     -7.203707     17.946552      4.923058   4.0000  12.0107
     73    3 C     6     -1.330317      7.317234      5.240516   4.0000  12.0107
     74    3 C     6     -5.671765     10.278871      2.926518   4.0000  12.0107
     75    3 C     6     20.070032      5.038249      0.612513   4.0000  12.0107
     76    3 C     6     14.398267     15.317120      1.701484   4.0000  12.0107
     77    3 C     6     18.739715     12.355482      4.015482   4.0000  12.0107
     78    3 C     6     -7.002082     17.596105      6.329487   4.0000  12.0107
     79    3 C     6     -0.181514      7.213795      4.412196   4.0000  12.0107
     80    3 C     6     -6.156586     11.325483      2.098199   4.0000  12.0107
     81    3 C     6     19.406049      4.095075      6.726194   4.0000  12.0107
     82    3 C     6     13.249464     15.420559      2.529804   4.0000  12.0107
     83    3 C     6     19.224536     11.308870      4.843801   4.0000  12.0107
     84    3 C     6     -6.338099     18.539278      0.215806   4.0000  12.0107
     85    3 C     6     10.814121     15.411052      2.964442   4.0000  12.0107
     86    3 C     6      7.382464     16.749354      0.650445   4.0000  12.0107
     87    3 C     6      7.939315     13.108301      5.278440   4.0000  12.0107
     88    3 C     6      2.253816     22.312878      1.663560   4.0000  12.0107
     89    3 C     6      5.685473     20.974576      3.977558   4.0000  12.0107
     90    3 C     6     18.196611      1.981253      6.291555   4.0000  12.0107
     91    3 C     6     11.940317     15.211870      2.018942   4.0000  12.0107
     92    3 C     6      6.991863     17.824259      6.646944   4.0000  12.0107
     93    3 C     6      7.203721     12.232578      4.332940   4.0000  12.0107
     94    3 C     6      1.127620     22.512060      2.609060   4.0000  12.0107
     95    3 C     6      6.076074     19.899671      4.923058   4.0000  12.0107
     96    3 C     6     18.932206      2.856976      0.295056   4.0000  12.0107
     97    3 C     6     11.737646     14.862011      0.612513   4.0000  12.0107
     98    3 C     6      7.396198     17.823648      5.240516   4.0000  12.0107
     99    3 C     6      7.002056     12.583048      2.926518   4.0000  12.0107
    100    3 C     6     14.398280      0.227543      4.015482   4.0000  12.0107
    101    3 C     6      5.671739     19.900282      6.329487   4.0000  12.0107
    102    3 C     6     19.133831      2.506528      1.701484   4.0000  12.0107
    103    3 C     6     12.886449     14.758572      6.726194   4.0000  12.0107
    104    3 C     6      6.911377     18.870260      4.412196   4.0000  12.0107
    105    3 C     6      6.338073     11.639875      2.098199   4.0000  12.0107
    106    3 C     6     13.249477      0.330982      4.843801   4.0000  12.0107
    107    3 C     6      6.156560     18.853669      0.215806   4.0000  12.0107
    108    3 C     6     19.797814      3.449702      2.529804   4.0000  12.0107
    109    4 O     8      9.576338      0.113240      4.815756   6.0000  15.9994
    110    4 O     8      8.181713      0.691932      2.501758   6.0000  15.9994
    111    4 O     8     -4.690100     21.829181      0.187760   6.0000  15.9994
    112    4 O     8      3.491626      7.431537      4.440242   6.0000  15.9994
    113    4 O     8      4.886250      6.852845      6.754240   6.0000  15.9994
    114    4 O     8      4.690074      8.349971      2.126244   6.0000  15.9994
    115    4 O     8     11.001789      0.689963      6.550006   6.0000  15.9994
    116    4 O     8      6.969530      1.638048      4.236008   6.0000  15.9994
    117    4 O     8     -4.903369     20.306342      1.922011   6.0000  15.9994
    118    4 O     8      2.066174      6.854814      2.705992   6.0000  15.9994
    119    4 O     8      6.098433      5.906729      5.019989   6.0000  15.9994
    120    4 O     8      4.903343      9.872811      0.391994   6.0000  15.9994
    121    4 O     8     -2.574269     22.171639      2.363730   6.0000  15.9994
    122    4 O     8      8.221844      1.774375      0.049726   6.0000  15.9994
    123    4 O     8     -5.647576     21.322693      4.677728   6.0000  15.9994
    124    4 O     8      2.574242      8.007514      6.892274   6.0000  15.9994
    125    4 O     8      4.846119      5.770402      2.264272   6.0000  15.9994
    126    4 O     8      5.647589      8.856438      4.578270   6.0000  15.9994
    127    4 O     8     -3.491639      7.658039      0.187760   6.0000  15.9994
    128    4 O     8     21.249676      8.236709      4.815756   6.0000  15.9994
    129    4 O     8     21.445813      6.739605      2.501758   6.0000  15.9994
    130    4 O     8     16.559589     14.976314      6.754240   6.0000  15.9994
    131    4 O     8     -8.181726     14.397644      2.126244   6.0000  15.9994
    132    4 O     8     -8.377863     15.894748      4.440242   6.0000  15.9994
    133    4 O     8     -2.066187      8.234763      1.922011   6.0000  15.9994
    134    4 O     8     20.037493      9.182825      6.550006   6.0000  15.9994
    135    4 O     8     21.232544      5.216766      4.236008   6.0000  15.9994
    136    4 O     8     15.134137     14.399591      5.019989   6.0000  15.9994
    137    4 O     8     -6.969543     13.451528      0.391994   6.0000  15.9994
    138    4 O     8     -8.164594     17.417588      2.705992   6.0000  15.9994
    139    4 O     8     -2.574255      7.082063      4.677728   6.0000  15.9994
    140    4 O     8     -4.846132      9.319174      2.363730   6.0000  15.9994
    141    4 O     8     20.488337      6.233116      0.049726   6.0000  15.9994
    142    4 O     8     15.642205     15.552291      2.264272   6.0000  15.9994
    143    4 O     8     17.914082     13.315179      4.578270   6.0000  15.9994
    144    4 O     8     -7.420387     16.401237      6.892274   6.0000  15.9994
    145    4 O     8      9.576324     15.202816      2.501758   6.0000  15.9994
    146    4 O     8      8.181700     15.781509      0.187760   6.0000  15.9994
[...]
    15 DIIS/Diag.  0.15E-03   12.0     0.00034017     -2427.2868783908  9.55E-07
    16 DIIS/Diag.  0.13E-03   11.1     0.00025458     -2427.2868792633 -8.72E-07
    17 DIIS/Diag.  0.50E-04   11.0     0.00007622     -2427.2868796264 -3.63E-07
    18 DIIS/Diag.  0.10E-04   11.0     0.00000950     -2427.2868796954 -6.90E-08
    19 DIIS/Diag.  0.17E-04   11.0     0.00000892     -2427.2868796961 -6.58E-10
    20 DIIS/Diag.  0.66E-05   11.0     0.00000339     -2427.2868796975 -1.45E-09
    21 DIIS/Diag.  0.11E-05   11.5     0.00000087     -2427.2868796985 -9.80E-10
    22 DIIS/Diag.  0.74E-06   11.0     0.00000094     -2427.2868796986 -3.41E-11
    23 DIIS/Diag.  0.98E-06   10.9     0.00000070     -2427.2868796985  7.28E-12
    24 DIIS/Diag.  0.36E-06   10.9     0.00000019     -2427.2868796986 -1.36E-11
    25 DIIS/Diag.  0.22E-06   10.9     0.00000013     -2427.2868796986  0.00E+00
    26 DIIS/Diag.  0.11E-06   11.0     0.00000012     -2427.2868796986 -1.36E-12
    27 DIIS/Diag.  0.99E-07   11.7     0.00000007     -2427.2868796986 -4.55E-13

  *** SCF run converged in    27 steps ***


  Electronic density on regular grids:       -809.9998190517        0.0001809483
  Core density on regular grids:              809.9999715240       -0.0000284760
  Total charge density on r-space grids:        0.0001524723
  Total charge density g-space grids:           0.0001524723

  Overlap energy of the core charge distribution:               0.00000851087892
  Self energy of the core charge distribution:              -5862.16497799442641
  Core Hamiltonian energy:                                   1726.18334246221775
  Hartree energy:                                            2185.71759077017987
  Exchange-correlation energy:                               -477.02284344740917
  Electronic entropic energy:                                  -0.00000000000000
  Fermi energy:                                                -0.03031146112410

  Total energy:                                             -2427.28687969855991

  outer SCF iter =    1 RMS gradient =   0.00E+00 energy =      -2427.2868796986
  outer SCF loop converged in   1 iterations or   27 steps


 The electron density is written in cube file format to the file:

 MgMOF-74-valence_density-ELECTRON_DENSITY-1_0.cube

 ENERGY| Total FORCE_EVAL ( QS ) energy [a.u.]:            -2427.286879698559915

 -------------------------------------------------------------------------------
 -                                                                             -
 -                                DBCSR STATISTICS                             -
 -                                                                             -
 -------------------------------------------------------------------------------
 COUNTER                                    TOTAL       BLAS       SMM       ACC
 flops    18 x    14 x    69             50703408       0.0%    100.0%      0.0%
 flops    14 x    18 x    69             67604544       0.0%    100.0%      0.0%
 flops    14 x    14 x    69             72299304       0.0%    100.0%      0.0%
 flops    18 x    14 x    64             94058496       0.0%    100.0%      0.0%
 flops    14 x    18 x    64            125411328       0.0%    100.0%      0.0%
 flops    14 x    14 x    64            134120448       0.0%    100.0%      0.0%
 flops    18 x    18 x    69            141245208       0.0%    100.0%      0.0%
 flops    18 x    14 x    96            211631616       0.0%    100.0%      0.0%
 flops    18 x    18 x    64            262020096       0.0%    100.0%      0.0%
 flops    14 x    18 x    96            282175488       0.0%    100.0%      0.0%
 flops    14 x    14 x    96            301771008       0.0%    100.0%      0.0%
 flops    18 x    18 x    96            589545216       0.0%    100.0%      0.0%
 flops    14 x    29 x    69            744275952       0.0%    100.0%      0.0%
 flops    29 x    14 x    69            753352488       0.0%    100.0%      0.0%
 flops    18 x    29 x    69           1166983200       0.0%    100.0%      0.0%
 flops    29 x    18 x    69           1318691016       0.0%    100.0%      0.0%
 flops    14 x    29 x    64           1380685824       0.0%    100.0%      0.0%
 flops    29 x    14 x    64           1397523456       0.0%    100.0%      0.0%
 flops    18 x    29 x    64           2164838400       0.0%    100.0%      0.0%
 flops    29 x    18 x    64           2446267392       0.0%    100.0%      0.0%
 flops    14 x    29 x    96           3106543104       0.0%    100.0%      0.0%
 flops    29 x    14 x    96           3144427776       0.0%    100.0%      0.0%
 flops    18 x    29 x    96           4870886400       0.0%    100.0%      0.0%
 flops    29 x    18 x    96           5504101632       0.0%    100.0%      0.0%
 flops    29 x    29 x    69          10970614566       0.0%    100.0%      0.0%
 flops    29 x    29 x    64          20351284992       0.0%    100.0%      0.0%
 flops    29 x    29 x    96          45790391232       0.0%    100.0%      0.0%
 flops inhomo. stacks                           0       0.0%      0.0%      0.0%
 flops total                       107.443454E+09       0.0%    100.0%      0.0%
 flops max/rank                      3.441130E+09       0.0%    100.0%      0.0%
 matmuls inhomo. stacks                         0       0.0%      0.0%      0.0%
 matmuls total                             989982       0.0%    100.0%      0.0%
 number of processed stacks                 49734       0.0%    100.0%      0.0%
 average stack size                                     0.0      19.9       0.0
 marketing flops                   391.317815E+09
 -------------------------------------------------------------------------------
 # multiplications                             27
 max memory usage/rank               1.485779E+09
 # max total images/rank                        1
 # max 3D layers                                1
 # MPI messages exchanged                    9720
 MPI messages size (bytes):
  total size                         4.431348E+09
  min size                         360.960000E+03
  max size                         541.440000E+03
  average size                     455.900031E+03
 MPI breakdown and total messages size (bytes):
             size <=      128                   0                        0
       128 < size <=     8192                   0                        0
      8192 < size <=    32768                   0                        0
     32768 < size <=   131072                   0                        0
    131072 < size <=  4194304                9720               4431348000
   4194304 < size <= 16777216                   0                        0
  16777216 < size                               0                        0
 -------------------------------------------------------------------------------
 -                                                                             -
 -                      DBCSR MESSAGE PASSING PERFORMANCE                      -
 -                                                                             -
 -------------------------------------------------------------------------------
 ROUTINE             CALLS      AVE VOLUME [Bytes]
 MP_Bcast               28                     12.
 MP_Allreduce          263                     13.
 MP_Alltoall          1080                 619957.
 MP_ISend              648                 198327.
 MP_IRecv              648                 183287.
 -------------------------------------------------------------------------------

 -------------------------------------------------------------------------------
 -                                                                             -
 -                                DBM STATISTICS                               -
 -                                                                             -
 -------------------------------------------------------------------------------
    M  x    N  x    K                                          COUNT     PERCENT
 -------------------------------------------------------------------------------

 -------------------------------------------------------------------------------
 -                                                                             -
 -                                GRID STATISTICS                              -
 -                                                                             -
 -------------------------------------------------------------------------------
 LP    KERNEL             BACKEND                              COUNT     PERCENT
 6     collocate general  REF                                1215396      27.67%
 6     integrate general  REF                                1171989      26.68%
 5     collocate general  REF                                 842688      19.19%
 5     integrate general  REF                                 812592      18.50%
 4     collocate general  REF                                 174888       3.98%
 4     integrate general  REF                                 168642       3.84%
 0     collocate general  REF                                   5832       0.13%
 -------------------------------------------------------------------------------

 MEMORY| Estimated peak process memory [MiB]                                1418

 -------------------------------------------------------------------------------
 ----                             MULTIGRID INFO                            ----
 -------------------------------------------------------------------------------
 count for grid        1:        1305000          cutoff [a.u.]         1000.00
 count for grid        2:        1713312          cutoff [a.u.]          333.33
 count for grid        3:        1334565          cutoff [a.u.]          111.11
 count for grid        4:         865908          cutoff [a.u.]           37.04
 count for grid        5:         468450          cutoff [a.u.]           12.35
 total gridlevel count  :        5687235

 -------------------------------------------------------------------------------
 -                                                                             -
 -                         MESSAGE PASSING PERFORMANCE                         -
 -                                                                             -
 -------------------------------------------------------------------------------

 ROUTINE             CALLS      AVE VOLUME [Bytes]
 MP_Group                5
 MP_Bcast              198                7626057.
 MP_Allreduce          672                   3715.
 MP_Sync                32
 MP_Alltoall           591               93825806.
 MP_SendRecv          2940                 353920.
 MP_ISendRecv         2835                 353920.
 MP_Wait              4278
 MP_ISend             1110                4538885.
 MP_IRecv             1110                4538753.
 MP_Recv                30                1082880.
 MP_Write_All            1               36403200.
 -------------------------------------------------------------------------------


 -------------------------------------------------------------------------------
 -                                                                             -
 -                           R E F E R E N C E S                               -
 -                                                                             -
 -------------------------------------------------------------------------------
 
 CP2K version 2023.1, the CP2K developers group (2023).
 CP2K is freely available from https://www.cp2k.org/ .

 Kuehne,Thomas D.; Iannuzzi,Marcella; Del Ben,Mauro;
 Rybkin,Vladimir V.; Seewald,Patrick; Stein,Frederick; Laino,Teodoro;
 Khaliullin,Rustam Z.; Schuett,Ole; Schiffmann,Florian; Golze,Dorothea;
 Wilhelm,Jan; Chulkov,Sergey; Bani-Hashemian,Mohammad Hossein;
 Weber,Valery; Borstnik,Urban; Taillefumier,Mathieu;
 Jakobovits,Alice Shoshana; Lazzaro,Alfio; Pabst,Hans; Mueller,Tiziano;
 Schade,Robert; Guidon,Manuel; Andermatt,Samuel; Holmberg,Nico;
 Schenter,Gregory K.; Hehn,Anna; Bussy,Augustin; Belleflamme,Fabian;
 Tabacchi,Gloria; Gloess,Andreas; Lass,Michael; Bethune,Iain;
 Mundy,Christopher J.; Plessl,Christian; Watkins,Matt;
 VandeVondele,Joost; Krack,Matthias; Hutter,Juerg. 
 The Journal of Chemical Physics, 152 (19), (2020). 
 CP2K: An electronic structure and molecular dynamics software package -
 Quickstep: Efficient and accurate electronic structure calculations.
 https://doi.org/10.1063/5.0007045

 Schuett, Ole; Messmer, Peter; Hutter, Juerg; VandeVondele, Joost. 
 Electronic Structure Calculations on Graphics Processing Units, John
 Wiley & Sons, Ltd, 173-190 (2016). 
 GPU-Accelerated Sparse Matrix-Matrix Multiplication for
 Linear Scaling Density Functional Theory.
 https://doi.org/10.1002/9781118670712.ch8

 Heinecke, A; Henry, G; Hutchinson, M; Pabst, H. 
 Proceedings of Intl. Supercomputing Conference, 981-991 (2016). 
 LIBXSMM: Accelerating Small Matrix Multiplications
 by Runtime Code Generation.
 https://doi.org/10.1109/SC.2016.83

 Borstnik, U; VandeVondele, J; Weber, V; Hutter, J. 
 PARALLEL COMPUTING, 40 (5-6), 47-58 (2014). 
 Sparse matrix multiplication: The distributed block-compressed sparse
 row library.
 https://doi.org/10.1016/j.parco.2014.03.012

 Hutter, J; Iannuzzi, M; Schiffmann, F; VandeVondele, J. 
 WIREs Comput Mol Sci., 4 (1), 15-25 (2014). 
 CP2K: atomistic simulations of condensed matter systems.
 https://doi.org/10.1002/wcms.1159

 VandeVondele, J; Hutter, J. 
 JOURNAL OF CHEMICAL PHYSICS, 127 (11), 114105 (2007). 
 Gaussian basis sets for accurate calculations on molecular systems in
 gas and condensed phases.
 https://doi.org/10.1063/1.2770708

 Krack, M. 
 THEORETICAL CHEMISTRY ACCOUNTS, 114 (1-3), 145-152 (2005). 
 Pseudopotentials for H to Kr optimized for gradient-corrected
 exchange-correlation functionals.
 https://doi.org/10.1007/s00214-005-0655-y

 VandeVondele, J; Krack, M; Mohamed, F; Parrinello, M; Chassaing, T;
 Hutter, J. COMPUTER PHYSICS COMMUNICATIONS, 167 (2), 103-128 (2005). 
 QUICKSTEP: Fast and accurate density functional calculations using a
 mixed Gaussian and plane waves approach.
 https://doi.org/10.1016/j.cpc.2004.12.014

 Frigo, M; Johnson, SG. 
 PROCEEDINGS OF THE IEEE, 93 (2), 216-231 (2005). 
 The design and implementation of FFTW3.
 https://doi.org/10.1109/JPROC.2004.840301

 Hartwigsen, C; Goedecker, S; Hutter, J. 
 PHYSICAL REVIEW B, 58 (7), 3641-3662 (1998). 
 Relativistic separable dual-space Gaussian pseudopotentials from H to Rn.
 https://doi.org/10.1103/PhysRevB.58.3641

 Lippert, G; Hutter, J; Parrinello, M. 
 MOLECULAR PHYSICS, 92 (3), 477-487 (1997). 
 A hybrid Gaussian and plane wave density functional scheme.
 https://doi.org/10.1080/002689797170220

 Perdew, JP; Burke, K; Ernzerhof, M. 
 PHYSICAL REVIEW LETTERS, 77 (18), 3865-3868 (1996). 
 Generalized gradient approximation made simple.
 https://doi.org/10.1103/PhysRevLett.77.3865

 Goedecker, S; Teter, M; Hutter, J. 
 PHYSICAL REVIEW B, 54 (3), 1703-1710 (1996). 
 Separable dual-space Gaussian pseudopotentials.
 https://doi.org/10.1103/PhysRevB.54.1703


 -------------------------------------------------------------------------------
 -                                                                             -
 -                                T I M I N G                                  -
 -                                                                             -
 -------------------------------------------------------------------------------
 SUBROUTINE                       CALLS  ASD         SELF TIME        TOTAL TIME
                                MAXIMUM       AVERAGE  MAXIMUM  AVERAGE  MAXIMUM
 CP2K                                 1  1.0    0.105    0.129  312.778  312.778
 qs_energies                          1  2.0    0.004    0.016  311.316  311.316
 scf_env_do_scf                       1  3.0    0.000    0.000  303.397  303.414
 scf_env_do_scf_inner_loop           27  4.0    0.002    0.012  303.393  303.410
 qs_ks_update_qs_env                 27  5.0    0.000    0.001  202.380  202.388
 rebuild_ks_matrix                   27  6.0    0.000    0.000  202.347  202.356
 qs_ks_build_kohn_sham_matrix        27  7.0    0.006    0.007  202.347  202.355
 pw_transfer                        574 10.1    0.077    0.101  165.026  172.885
 fft_wrap_pw1pw2                    520 11.2    0.009    0.011  163.012  171.830
 fft_wrap_pw1pw2_1000               300 12.7   12.818   16.030  157.674  164.948
 qs_vxc_create                       27  8.0    0.001    0.002  143.394  145.198
 xc_vxc_pw_create                    27  9.0    1.433    2.128  143.392  145.197
 fft3d_ps                           520 13.2   73.331   77.707  124.078  142.928
 xc_pw_derive                       162 11.0    0.003    0.003   97.928  101.733
 xc_rho_set_and_dset_create          27 10.0    1.366    2.186   78.490   80.534
 xc_pw_divergence                    27 10.0    0.001    0.002   61.806   64.716
 mp_alltoall_z22v                   520 15.2   31.125   63.174   31.125   63.174
 qs_rho_update_rho_low               28  5.0    0.000    0.000   55.211   55.222
 calculate_rho_elec                  28  6.0    0.305    0.309   55.211   55.222
 qs_scf_new_mos                      27  5.0    0.001    0.001   47.738   47.788
 density_rs2pw                       28  7.0    0.002    0.002   42.917   43.497
 eigensolver                         27  6.0    0.003    0.006   41.779   41.847
 x_to_yz                            271 14.7   13.189   15.545   29.146   38.941
 sum_up_and_integrate                27  8.0    1.181    1.427   36.610   36.636
 integrate_v_rspace                  27  9.0    0.001    0.001   35.429   35.976
 yz_to_x                            249 13.6    6.414    7.549   21.583   35.656
 cp_fm_syevd                         27  7.0    0.000    0.001   33.045   33.103
 cp_fm_syevd_base                    27  8.0   33.028   33.085   33.028   33.085
 potential_pw2rs                     27 10.0    0.029    0.037   26.451   27.001
 xc_functional_eval                  27 11.0    0.001    0.002   21.534   22.993
 pbe_lda_eval                        27 12.0   21.533   22.992   21.533   22.992
 rs_pw_transfer                     276  9.5    0.004    0.006   21.070   21.719
 pw_gather_p                        249 12.6   13.720   17.068   13.720   17.068
 grid_collocate_task_list            28  7.0   11.278   13.552   11.278   13.552
 pw_scatter_p                       271 13.7   12.100   13.239   12.100   13.239
 mp_waitany                        1110 11.4   10.072   12.436   10.072   12.436
 pw_derive                          162 12.0    9.225   12.232    9.225   12.232
 grid_integrate_task_list            27 10.0    8.791    8.943    8.791    8.943
 cp_fm_cholesky_restore              81  7.0    8.458    8.665    8.458    8.665
 rs_pw_transfer_RS2PW_1000           29  8.9    2.129    2.842    6.821    8.454
 pw_copy                            351 10.8    6.733    8.190    6.733    8.190
 mp_sum_d                           662  4.0    2.228    7.938    2.228    7.938
 rs_pw_transfer_PW2RS_1000           27 12.0    2.435    3.193    7.104    7.849
 -------------------------------------------------------------------------------

 The number of warnings for this run is : 0
 
 -------------------------------------------------------------------------------
  **** **** ******  **  PROGRAM ENDED AT                 2023-07-13 13:20:44.314
 ***** ** ***  *** **   PROGRAM RAN ON                                  cccxc614
 **    ****   ******    PROGRAM RAN BY                                  felipelo
 ***** **    ** ** **   PROGRAM PROCESS ID                               1359724
  **** **  *******  **  PROGRAM STOPPED IN /dccstor/nanopore-2945/felipe/Converg
                                           encyCP2K/TZV2P/2000
